
         
 *******************************************************************************
 *                                                                             *
 *                               CRYSTAL17                                     *
 *                      public : 1.0.1 - Feb 1st, 2017                         *
 *                       HTTP://WWW.CRYSTAL.UNITO.IT                           *
 *                                                                             *
 *                              MAIN AUTHORS                                   *
 *                                                                             *
 *  R. DOVESI(1,11), V.R. SAUNDERS(2), C. ROETTI(1,11), R. ORLANDO(1,11),      *
 *  C.M. ZICOVICH-WILSON(1,3), F. PASCALE(4), B. CIVALLERI(1,11),              *
 *  K. DOLL(5), N.M. HARRISON(2,6), I.J. BUSH(7), Ph. D'ARCO(8),               *
 *  M. LLUNELL(9), M. CAUSA'(10), Y. NOEL(8), L. MASCHIO(1,11), A. ERBA(1,11)  *
 *  M. RE'RAT(14), S. CASASSA(1,11)                                            *
 *                                                                             *
 *        CONTRIBUTIONS TO THE CODE HAVE ALSO BEEN GIVEN BY                    *
 *                                                                             *
 *  M. FERRABONE(1,11), M. DE LA PIERRE(1,11), M. FERRERO(1,11),               *
 *  J. BAIMA(1,11), E. ALBANESE(1,11), M.F. PEINTINGER(12), R. BAST(13),       *
 *  B. KIRTMAN(15), V. LACIVITA(1,11), R. DEMICHELIS(1,16)                     *
 *  G. BRANDEBURG(17), S. SALUSTRO(1,11), G. SANSONE(1,11)                     *
 *  M.T. RUGGIERO(18)                                                          *
 *                                                                             *
 * (1) THEORETICAL CHEMISTRY GROUP - UNIVERSITA' DI TORINO - TORINO (ITALY)    *

 * (2) COMPUTATIONAL SCIENCE & ENGINEERING DEPARTMENT - STFC DARESBURY (UK)    *
 * (3) UNIVERSIDAD AUTONOMA DEL ESTADO DE MORELOS - CUERNAVACA (MEXICO)        *
 * (4) UNIVERSITE' DE LORRAINE - NANCY (FRANCE)                                *
 * (5) UNIVERSITAET STUTTGART- STUTTGART (GERMANY)                             *
 * (6) IMPERIAL COLLEGE - LONDON (UK)                                          *
 * (7) OXFORD E-RESEARCH CENTRE - OXFORD (UK)                                  *
 * (8) UPMC - SORBONNE UNIVERSITES - PARIS (FRANCE)                            *
 * (9) UNIVERSIDAD DE BARCELONA - BARCELONA (SPAIN)                            *
 *(10) UNIVERSITA' DI NAPOLI "FEDERICO II" - NAPOLI (ITALY)                    *
 *(11) NIS - NANOSTRUCTURED INTERFACES AND SURFACES - TORINO (ITALY)           *
 *(12) MPI FUER CHEMISCHE ENERGIEKONVERSION - MUELHEIM AN DER RUHR (GERMANY)   *
 *(13) UNIVERSITY OF TROMSO - TROMSO (NORWAY)                                  *
 *(14) UNIVERSITE' DE PAU ET DES PAYS DE L'ADOUR - PAU (FRANCE)                *
 *(15) UNIVERSITY OF CALIFORNIA SANTA BARBARA - SANTA BARBARA (USA)            *
 *(16) CURTIN UNIVERSITY - PERTH (AUSTRALIA)                                   *
 *(17) UNIVERSITY COLLEGE LONDON - LONDON (UK)                                 *
 *(18) CAMBRIDGE UNIVERSITY - CAMBRIDGE (UK)                                   *
 *                                                                             *
 *******************************************************************************
 EEEEEEEEEE STARTING  DATE 15 07 2019 TIME 21:29:44.4
 Sulfur Dimer Molecule                                                           

 MOLECULAR CALCULATION
 POINT  GROUP  N.  1                  :  1      OR  C1   
 CORRESPONDING SPACE GROUP            :  P 1             


 NUMBER OF IRREDUCIBLE ATOMS IN THE CONVENTIONAL CELL:    2

 INPUT COORDINATES

 ATOM AT. N.              COORDINATES
   1  16     0.000000000000E+00  0.000000000000E+00  0.000000000000E+00
   2  16     1.890000000000E+00  0.000000000000E+00  0.000000000000E+00

 COORDINATES OF THE EQUIVALENT ATOMS (ANGSTROMS)

 N. ATOM EQUIV AT. N.          X                  Y                  Z

   1   1   1   16 S     0.00000000000E+00  0.00000000000E+00  0.00000000000E+00

   2   2   1   16 S     1.89000000000E+00  0.00000000000E+00  0.00000000000E+00

 NUMBER OF SYMMETRY OPERATORS         :    1
 *******************************************************************************
 * GEOMETRY EDITING - INPUT COORDINATES ARE GIVEN IN ANGSTROM         
 *******************************************************************************
 INFORMATION **** NEW DEFAULT **** FINALRUN 4 FOR GEOMETRY OPTIMIZATIONS
 INFORMATION **** NEW DEFAULT **** OPTGEOM OPTIMIZES BOTH ATOMIC COORDINATES AND CELL PARAMETERS
 INFORMATION **** NEW DEFAULT **** TOL. ON ATOMIC DISP TO REDEFINE REF. GEOMETRY: 0.8 Angs
 INFORMATION **** NEW DEFAULT **** N POINTS TO REDEFINE REF. GEOMETRY: N OF OPT DEGS OF FREEDOM
 INFORMATION **** NEW DEFAULT **** TOL. ON ENERGY TO REDEFINE REF. GEOMETRY: 10**-3*(5*N. ATOMS)
 INFORMATION **** OPTGEOM ****  PRINT INFO ON OPTIMIZATION
 INFORMATION **** MAXCYCLE ****   MAXIMUM NUMBER OF OPTIMIZATION CYCLES         100

 IMPORTANT INFORMATION:
 THE COORDINATE SYSTEM ADOPTED IN THE OPTIMIZATION IS NOT IN
 GENERAL HOMOGENEOUS UNITS. FOR THIS REASON THE GRADIENT AND 
 HESSIAN MATRIX IN TERMS OF THIS SYSTEM ARE GIVEN WITHOUT
 UNITS. FOR MORE DETAILS SEE THE MANUAL.

 *******************************************************************************
 ATOMIC POSITIONS OPTIMIZATION CONTROL

 INITIAL TRUST RADIUS         0.50000 MAXIMUM TRUST RADIUS               4.00000
 MAXIMUM GRADIENT COMPONENT   0.00045 MAXIMUM DISPLACEMENT COMPONENT     0.00180
 R.M.S. OF GRADIENT COMPONENT 0.00030 R.M.S. OF DISPLACEMENT COMPONENTS  0.00120
 THRESHOLD ON ENERGY CHANGE 0.100E-06 EXTRAPOLATING POLYNOMIAL ORDER           2
 MAXIMUM ALLOWED NUMBER OF STEPS  100 SORTING OF ENERGY POINTS:               NO
 ANALYTICAL  GRADIENT                 HESSIAN UPDATING                      BFGS
 STEP SIZE NUMERICAL GRADIENT 0.00100
 INITIAL HESSIAN MATRIX: SCHLEGEL MODEL 2
 *******************************************************************************


 GEOMETRY FOR WAVE FUNCTION - DIMENSIONALITY OF THE SYSTEM    0
 (NON PERIODIC DIRECTION: LATTICE PARAMETER FORMALLY SET TO 500)
 *******************************************************************************
 ATOMS IN THE ASYMMETRIC UNIT    2 - ATOMS IN THE UNIT CELL:    2
     ATOM             X(ANGSTROM)         Y(ANGSTROM)         Z(ANGSTROM)
 *******************************************************************************
      1 T  16 S     0.000000000000E+00  0.000000000000E+00  0.000000000000E+00
      2 T  16 S     1.890000000000E+00  0.000000000000E+00  0.000000000000E+00

 T = ATOM BELONGING TO THE ASYMMETRIC UNIT

 ****    1 SYMMOPS - TRANSLATORS IN FRACTIONAL UNITS
 **** MATRICES AND TRANSLATORS IN THE CRYSTALLOGRAPHIC REFERENCE FRAME
   V INV                    ROTATION MATRICES                   TRANSLATORS
   1   1  1.00  0.00  0.00  0.00  1.00  0.00  0.00  0.00  1.00  0.00  0.00  0.00

 *******************************************************************************
 LOCAL ATOMIC FUNCTIONS BASIS SET
 *******************************************************************************
   ATOM   X(AU)   Y(AU)   Z(AU)  N. TYPE  EXPONENT  S COEF   P COEF   D/F/G COEF
 *******************************************************************************
   1 S    0.000   0.000   0.000
                                  1 S  
                                         6.070E+04 5.470E-04 0.000E+00 0.000E+00
                                         9.103E+03 4.230E-03 0.000E+00 0.000E+00
                                         2.071E+03 2.175E-02 0.000E+00 0.000E+00
                                         5.860E+02 8.510E-02 0.000E+00 0.000E+00
                                         1.906E+02 2.480E-01 0.000E+00 0.000E+00
                                         6.763E+01 4.670E-01 0.000E+00 0.000E+00
                                         2.513E+01 3.643E-01 0.000E+00 0.000E+00
                                  2 S  
                                         1.126E+02 2.167E-02 0.000E+00 0.000E+00
                                         3.480E+01 9.360E-02 0.000E+00 0.000E+00
                                         6.512E+00-2.607E-01 0.000E+00 0.000E+00
                                  3 S  
                                         3.240E+00 1.284E+00 0.000E+00 0.000E+00
                                         1.548E+00 6.604E-01 0.000E+00 0.000E+00
                                  4 S  
                                         2.887E-01 1.000E+00 0.000E+00 0.000E+00
                                  5 S  
                                         1.153E-01 1.000E+00 0.000E+00 0.000E+00
                           6-     8 P  
                                         5.644E+02 0.000E+00 2.480E-03 0.000E+00
                                         1.334E+02 0.000E+00 1.968E-02 0.000E+00
                                         4.247E+01 0.000E+00 8.998E-02 0.000E+00
                                         1.562E+01 0.000E+00 2.571E-01 0.000E+00
                                         6.109E+00 0.000E+00 4.352E-01 0.000E+00
                           9-    11 P  
                                         2.036E+00 0.000E+00 1.000E+00 0.000E+00
                          12-    14 P  
                                         3.338E-01 0.000E+00 1.000E+00 0.000E+00
                          15-    17 P  
                                         1.155E-01 0.000E+00 1.000E+00 0.000E+00
                          18-    22 D  
                                         5.207E-01 0.000E+00 0.000E+00 1.000E+00
   2 S    3.572   0.000   0.000
 INFORMATION **** SET_MPP **** PCRYSTAL CALCULATION
 INFORMATION **** READM2 **** NEW DEFAULT: FOCK/KS MATRIX MIXING SET TO 30 %
 INFORMATION **** READM2 **** NEW DEFAULT: FULL DIRECT SCF MODE
 INFORMATION **** READM2 **** NEW DEFAULT: COULOMB BIPOLAR BUFFER SET TO 32 Mb
 INFORMATION **** READM2 **** NEW DEFAULT: EXCHANGE BIPOLAR BUFFER SET TO 32 Mb

 *******************************************************************************
 NEW DEFAULT: DFT INTEGRATION GRID INCREASED TO XLGRID
 NEW DEFAULT: DIIS ACCELERATOR ACTIVE
 USE KEYWORD NODIIS TO TURN IT OFF
 *******************************************************************************

 WARNING **** RDDFTP **** HSE06-HJS ACTIVE
 RANGE SEPARATION - OMEGA:   0.11000000000000000     
 WARNING **** SHRINK **** MOLECULAR CASE - SHRINKING NOT USED
 INFORMATION **** MAXCYCLE **** MAX NUMBER OF SCF CYCLES SET TO         250
 INFORMATION **** TOLINTEG **** COULOMB AND EXCHANGE SERIES TOLERANCES MODIFIED
 INFORMATION **** TOLDEE **** SCF TOL ON TOTAL ENERGY SET TO           7
 INFORMATION **** PPAN ****  MULLIKEN POPULATION ANALYSIS AT THE END OF SCF
 *******************************************************************************
 N. OF ATOMS PER CELL         2  COULOMB OVERLAP TOL         (T1) 10**   -7
 NUMBER OF SHELLS            20  COULOMB PENETRATION TOL     (T2) 10**   -7
 NUMBER OF AO                44  EXCHANGE OVERLAP TOL        (T3) 10**   -7
 N. OF ELECTRONS PER CELL    32  EXCHANGE PSEUDO OVP (F(G))  (T4) 10**   -7
 CORE ELECTRONS PER CELL     20  EXCHANGE PSEUDO OVP (P(G))  (T5) 10**  -14
 N. OF SYMMETRY OPERATORS     1  POLE ORDER IN MONO ZONE                  4
 *******************************************************************************
 TYPE OF CALCULATION :  UNRESTRICTED OPEN SHELL
 KOHN-SHAM HAMILTONIAN

 (EXCHANGE)[CORRELATION] FUNCTIONAL:(HSE06 SR/GGA)[PERDEW-BURKE-ERNZERHOF]

 RANGE-SEPARATED HYBRID FUNCTIONAL 
 OMEGA (SHORT-RANGE)[LONG-RANGE]:(    0.1100)[    0.0000]

 HYBRID EXCHANGE - PERCENTAGE OF FOCK EXCHANGE    25.0000

 SPIN POLARIZED DFT SELECTED

 CAPPA:IS1  1;IS2  1;IS3  1; K PTS MONK NET   1; SYMMOPS:K SPACE   2;G SPACE   1

 *******************************************************************************
 MAX NUMBER OF SCF CYCLES     250  CONVERGENCE ON DELTAP        10**-17
 WEIGHT OF F(I) IN F(I+1)      30% CONVERGENCE ON ENERGY        10**- 7

 DISK SPACE FOR EIGENVECTORS (FTN 10)        1936 REALS

 SYMMETRY ADAPTION OF THE BLOCH FUNCTIONS DISABLED
 TTTTTTTTTTTTTTTTTTTTTTTTTTTTTT gordsh1     TELAPSE        0.03 TCPU        0.01

 MATRIX SIZE: P(G)    1886, F(G)     931, P(G) IRR    1009, F(G) IRR     975
 MAX G-VECTOR INDEX FOR 1- AND 2-ELECTRON INTEGRALS   1

 TTTTTTTTTTTTTTTTTTTTTTTTTTTTTT INPUT       TELAPSE        0.03 TCPU        0.01

 NEIGHBORS OF THE NON-EQUIVALENT ATOMS

 N = NUMBER OF NEIGHBORS AT DISTANCE R
    ATOM  N     R/ANG      R/AU   NEIGHBORS (ATOM LABELS AND CELL INDICES)
   1 S    1     1.8900     3.5716    2 S    0 0 0

   2 S    1     1.8900     3.5716    1 S    0 0 0


 SYMMETRY ALLOWED INTERNAL DEGREE(S) OF FREEDOM:   1
 TTTTTTTTTTTTTTTTTTTTTTTTTTTTTT SYMM        TELAPSE        0.03 TCPU        0.01
 TTTTTTTTTTTTTTTTTTTTTTTTTTTTTT INT_SCREEN  TELAPSE        0.03 TCPU        0.01

 *******************************************************************************
 *                             OPTIMIZATION STARTS                             *
 *******************************************************************************
 RECLASIFICATION OF INDICES FOR INTEGRAL CALC ACCORDING TO DIFFERENT CRITERIA:
           FIXDELTE                  FIXDELTX              FIXDELTN
          0.10000000E-01           0.80000000                 10
 *******************************************************************************

 *******************************************************************************
 COORDINATE OPTIMIZATION - POINT    1

 DFT PARAMETERS

     ATOM       ELECTRONS   NET CHARGE   R(ANGSTROM)
   1  16  S      16.0000      0.0000     1.04000000

 SIZE OF GRID=     143550
 TTTTTTTTTTTTTTTTTTTTTTTTTTTTTT MAKE_GRID2  TELAPSE        0.09 TCPU        0.06
 BECKE WEIGHT FUNCTION
 RADSAFE =     2.00
 TOLERANCES - DENSITY:10**- 6; POTENTIAL:10**- 9; GRID WGT:10**-14

 RADIAL INTEGRATION  - INTERVALS (POINTS,UPPER LIMIT):            1( 99,  4.0*R)

 ANGULAR INTEGRATION - INTERVALS (ACCURACY LEVEL [N. POINTS] UPPER LIMIT):
  1(  6[ 146]   0.2)  2( 11[ 302]   0.5)  3( 14[ 590]   0.9)  4( 18[1454]   3.5)
  5( 14[ 590]9999.0)
 TTTTTTTTTTTTTTTTTTTTTTTTTTTTTT INT_CALC    TELAPSE        0.09 TCPU        0.06

 *******************************************************************************
 Sulfur Dimer Molecule                                                           
 CRYSTAL - SCF - TYPE OF CALCULATION :  UNRESTRICTED OPEN SHELL
 *******************************************************************************

 CAPPA:IS1  1;IS2  1;IS3  1; K PTS MONK NET   1; SYMMOPS:K SPACE   2;G SPACE   1

 TTTTTTTTTTTTTTTTTTTTTTTTTTTTTT SDIK        TELAPSE        0.10 TCPU        0.06

 AAAAAAAAAAAAAAAAAAAAAAAAAAAAAAAAAAAAAAAAAAAAAAAAAAAAAAAAAAAAAAAAAAAAAAAAAAAAAAA
         ATOMIC WAVEFUNCTION(S)


 NUCLEAR CHARGE 16.0  SYMMETRY SPECIES            S    P
 N. ELECTRONS   16.0  NUMBER OF PRIMITIVE GTOS   14    8
                      NUMBER OF CONTRACTED GTOS   5    4
                      NUMBER OF CLOSED SHELLS     3    1
                      OPEN SHELL OCCUPATION       0    4

  ZNUC SCFIT  TOTAL HF ENERGY   KINETIC ENERGY   VIRIAL THEOREM ACCURACY
  16.0  11   -3.973405726E+02  3.980348248E+02 -1.998255800E+00  3.2E-06

 AAAAAAAAAAAAAAAAAAAAAAAAAAAAAAAAAAAAAAAAAAAAAAAAAAAAAAAAAAAAAAAAAAAAAAAAAAAAAAA

 CHARGE NORMALIZATION FACTOR   1.00000000
 TOTAL ATOMIC CHARGES:
  16.0000000  16.0000000
 SUMMED SPIN DENSITY           0.00000000
 TOTAL ATOMIC SPINS  :
   0.0000000   0.0000000
 TTTTTTTTTTTTTTTTTTTTTTTTTTTTTT MOQGAD      TELAPSE        0.10 TCPU        0.07
 TTTTTTTTTTTTTTTTTTTTTTTTTTTTTT SHELLXN     TELAPSE        0.51 TCPU        0.37
 TTTTTTTTTTTTTTTTTTTTTTTTTTTTTT MONMO3      TELAPSE        0.51 TCPU        0.37
 NUMERICALLY INTEGRATED DENSITY     15.9999878573     15.9999878573
 TTTTTTTTTTTTTTTTTTTTTTTTTTTTTT NUMDFT      TELAPSE        1.14 TCPU        0.82
 CYC   0 ETOT(AU) -7.960504254905E+02 DETOT -7.96E+02 tst  0.00E+00 PX  1.00E+00
 TTTTTTTTTTTTTTTTTTTTTTTTTTTTTT DIIS        TELAPSE        1.14 TCPU        0.82
 TTTTTTTTTTTTTTTTTTTTTTTTTTTTTT FDIK        TELAPSE        1.14 TCPU        0.83
 POSSIBLY CONDUCTING STATE - EFERMI(AU) -2.0164120E-01 (RES. CHARGE  1.45E-03;IT.  8)
 TTTTTTTTTTTTTTTTTTTTTTTTTTTTTT PDIG        TELAPSE        1.14 TCPU        0.83
 CHARGE NORMALIZATION FACTOR   1.00004535
 TOTAL ATOMIC CHARGES:
  16.0000000  16.0000000
 SUMMED SPIN DENSITY           0.00334248
 TOTAL ATOMIC SPINS  :
   0.0016712   0.0016712
 TTTTTTTTTTTTTTTTTTTTTTTTTTTTTT MOQGAD      TELAPSE        1.14 TCPU        0.83
 TTTTTTTTTTTTTTTTTTTTTTTTTTTTTT SHELLXN     TELAPSE        1.40 TCPU        1.07
 TTTTTTTTTTTTTTTTTTTTTTTTTTTTTT MONMO3      TELAPSE        1.40 TCPU        1.07
 NUMERICALLY INTEGRATED DENSITY     16.0016604748     15.9983180120
 TTTTTTTTTTTTTTTTTTTTTTTTTTTTTT NUMDFT      TELAPSE        1.88 TCPU        1.53
 CYC   1 ETOT(AU) -7.958074902475E+02 DETOT  2.43E-01 tst  0.00E+00 PX  1.00E+00
 TTTTTTTTTTTTTTTTTTTTTTTTTTTTTT DIIS        TELAPSE        1.88 TCPU        1.53
 DIIS TEST: 0.91047E-03 AT SCF   CYCLE   1 - MIX   30 %
 TTTTTTTTTTTTTTTTTTTTTTTTTTTTTT FDIK        TELAPSE        1.88 TCPU        1.53

    ALPHA      ELECTRONS
 INSULATING STATE
 TOP OF VALENCE BANDS -    BAND     17; K    1; EIG -1.8965072E-01 AU
 BOTTOM OF VIRTUAL BANDS - BAND     18; K    1; EIG -3.6204829E-03 AU
 DIRECT ENERGY BAND GAP:   5.0621 eV

    BETA       ELECTRONS
 INSULATING STATE
 TOP OF VALENCE BANDS -    BAND     15; K    1; EIG -3.4806597E-01 AU
 BOTTOM OF VIRTUAL BANDS - BAND     16; K    1; EIG -1.8954064E-01 AU
 DIRECT ENERGY BAND GAP:   4.3137 eV
 TTTTTTTTTTTTTTTTTTTTTTTTTTTTTT PDIG        TELAPSE        1.88 TCPU        1.53
 CHARGE NORMALIZATION FACTOR   1.00000000
 TOTAL ATOMIC CHARGES:
  16.0000000  16.0000000
 SUMMED SPIN DENSITY           2.00000000
 TOTAL ATOMIC SPINS  :
   1.0000000   1.0000000
 TTTTTTTTTTTTTTTTTTTTTTTTTTTTTT MOQGAD      TELAPSE        1.88 TCPU        1.53
 TTTTTTTTTTTTTTTTTTTTTTTTTTTTTT SHELLXN     TELAPSE        2.14 TCPU        1.77
 TTTTTTTTTTTTTTTTTTTTTTTTTTTTTT MONMO3      TELAPSE        2.14 TCPU        1.77
 NUMERICALLY INTEGRATED DENSITY     16.9999836675     14.9999935571
 TTTTTTTTTTTTTTTTTTTTTTTTTTTTTT NUMDFT      TELAPSE        2.66 TCPU        2.25
 CYC   2 ETOT(AU) -7.958340227568E+02 DETOT -2.65E-02 tst  4.80E-05 PX  3.25E-01
 TTTTTTTTTTTTTTTTTTTTTTTTTTTTTT DIIS        TELAPSE        2.66 TCPU        2.25
 DIIS TEST: 0.59642E-02 AT SCF   CYCLE   2 - DIIS ACTIVE - HISTORY:     2 CYCLES
 TTTTTTTTTTTTTTTTTTTTTTTTTTTTTT FDIK        TELAPSE        2.66 TCPU        2.25

    ALPHA      ELECTRONS
 INSULATING STATE
 TOP OF VALENCE BANDS -    BAND     17; K    1; EIG -1.9109202E-01 AU
 BOTTOM OF VIRTUAL BANDS - BAND     18; K    1; EIG  1.9341898E-03 AU
 DIRECT ENERGY BAND GAP:   5.2525 eV

    BETA       ELECTRONS
 INSULATING STATE
 TOP OF VALENCE BANDS -    BAND     15; K    1; EIG -3.4129302E-01 AU
 BOTTOM OF VIRTUAL BANDS - BAND     16; K    1; EIG -1.7863719E-01 AU
 DIRECT ENERGY BAND GAP:   4.4261 eV
 TTTTTTTTTTTTTTTTTTTTTTTTTTTTTT PDIG        TELAPSE        2.66 TCPU        2.25
 CHARGE NORMALIZATION FACTOR   1.00000000
 TOTAL ATOMIC CHARGES:
  16.0000000  16.0000000
 SUMMED SPIN DENSITY           2.00000000
 TOTAL ATOMIC SPINS  :
   1.0000000   1.0000000
 TTTTTTTTTTTTTTTTTTTTTTTTTTTTTT MOQGAD      TELAPSE        2.67 TCPU        2.25
 TTTTTTTTTTTTTTTTTTTTTTTTTTTTTT SHELLXN     TELAPSE        2.92 TCPU        2.49
 TTTTTTTTTTTTTTTTTTTTTTTTTTTTTT MONMO3      TELAPSE        2.92 TCPU        2.49
 NUMERICALLY INTEGRATED DENSITY     16.9999835607     14.9999933930
 TTTTTTTTTTTTTTTTTTTTTTTTTTTTTT NUMDFT      TELAPSE        3.98 TCPU        3.08
 CYC   3 ETOT(AU) -7.958343392119E+02 DETOT -3.16E-04 tst  1.16E-05 PX  1.12E-02
 TTTTTTTTTTTTTTTTTTTTTTTTTTTTTT DIIS        TELAPSE        3.98 TCPU        3.08
 DIIS TEST: 0.49230E-02 AT SCF   CYCLE   3 - DIIS ACTIVE - HISTORY:     3 CYCLES
 TTTTTTTTTTTTTTTTTTTTTTTTTTTTTT FDIK        TELAPSE        3.98 TCPU        3.08

    ALPHA      ELECTRONS
 INSULATING STATE
 TOP OF VALENCE BANDS -    BAND     17; K    1; EIG -1.9933297E-01 AU
 BOTTOM OF VIRTUAL BANDS - BAND     18; K    1; EIG -1.2982126E-03 AU
 DIRECT ENERGY BAND GAP:   5.3888 eV

    BETA       ELECTRONS
 INSULATING STATE
 TOP OF VALENCE BANDS -    BAND     15; K    1; EIG -3.4176827E-01 AU
 BOTTOM OF VIRTUAL BANDS - BAND     16; K    1; EIG -1.7569273E-01 AU
 DIRECT ENERGY BAND GAP:   4.5191 eV
 TTTTTTTTTTTTTTTTTTTTTTTTTTTTTT PDIG        TELAPSE        3.98 TCPU        3.09
 CHARGE NORMALIZATION FACTOR   1.00000000
 TOTAL ATOMIC CHARGES:
  16.0000000  16.0000000
 SUMMED SPIN DENSITY           2.00000000
 TOTAL ATOMIC SPINS  :
   1.0000000   1.0000000
 TTTTTTTTTTTTTTTTTTTTTTTTTTTTTT MOQGAD      TELAPSE        3.99 TCPU        3.09
 TTTTTTTTTTTTTTTTTTTTTTTTTTTTTT SHELLXN     TELAPSE        4.34 TCPU        3.39
 TTTTTTTTTTTTTTTTTTTTTTTTTTTTTT MONMO3      TELAPSE        4.34 TCPU        3.39
 NUMERICALLY INTEGRATED DENSITY     16.9999841051     14.9999934084
 TTTTTTTTTTTTTTTTTTTTTTTTTTTTTT NUMDFT      TELAPSE        4.96 TCPU        3.91
 CYC   4 ETOT(AU) -7.958349172222E+02 DETOT -5.78E-04 tst  1.23E-05 PX  7.53E-03
 TTTTTTTTTTTTTTTTTTTTTTTTTTTTTT DIIS        TELAPSE        4.96 TCPU        3.91
 DIIS TEST: 0.33335E-02 AT SCF   CYCLE   4 - DIIS ACTIVE - HISTORY:     4 CYCLES
 TTTTTTTTTTTTTTTTTTTTTTTTTTTTTT FDIK        TELAPSE        4.96 TCPU        3.92

    ALPHA      ELECTRONS
 INSULATING STATE
 TOP OF VALENCE BANDS -    BAND     17; K    1; EIG -2.0471181E-01 AU
 BOTTOM OF VIRTUAL BANDS - BAND     18; K    1; EIG -2.1656973E-03 AU
 DIRECT ENERGY BAND GAP:   5.5116 eV

    BETA       ELECTRONS
 INSULATING STATE
 TOP OF VALENCE BANDS -    BAND     15; K    1; EIG -3.3799305E-01 AU
 BOTTOM OF VIRTUAL BANDS - BAND     16; K    1; EIG -1.6948703E-01 AU
 DIRECT ENERGY BAND GAP:   4.5853 eV
 TTTTTTTTTTTTTTTTTTTTTTTTTTTTTT PDIG        TELAPSE        4.96 TCPU        3.92
 CHARGE NORMALIZATION FACTOR   1.00000000
 TOTAL ATOMIC CHARGES:
  16.0000000  16.0000000
 SUMMED SPIN DENSITY           2.00000000
 TOTAL ATOMIC SPINS  :
   1.0000000   1.0000000
 TTTTTTTTTTTTTTTTTTTTTTTTTTTTTT MOQGAD      TELAPSE        4.97 TCPU        3.92
 TTTTTTTTTTTTTTTTTTTTTTTTTTTTTT SHELLXN     TELAPSE        5.46 TCPU        4.22
 TTTTTTTTTTTTTTTTTTTTTTTTTTTTTT MONMO3      TELAPSE        5.46 TCPU        4.22
 NUMERICALLY INTEGRATED DENSITY     16.9999843545     14.9999933010
 TTTTTTTTTTTTTTTTTTTTTTTTTTTTTT NUMDFT      TELAPSE        6.81 TCPU        4.86
 CYC   5 ETOT(AU) -7.958352726479E+02 DETOT -3.55E-04 tst  4.97E-06 PX  4.93E-03
 TTTTTTTTTTTTTTTTTTTTTTTTTTTTTT DIIS        TELAPSE        6.81 TCPU        4.86
 DIIS TEST: 0.24018E-02 AT SCF   CYCLE   5 - DIIS ACTIVE - HISTORY:     5 CYCLES
 TTTTTTTTTTTTTTTTTTTTTTTTTTTTTT FDIK        TELAPSE        6.81 TCPU        4.86

    ALPHA      ELECTRONS
 INSULATING STATE
 TOP OF VALENCE BANDS -    BAND     17; K    1; EIG -2.2255669E-01 AU
 BOTTOM OF VIRTUAL BANDS - BAND     18; K    1; EIG -4.9221201E-03 AU
 DIRECT ENERGY BAND GAP:   5.9221 eV

    BETA       ELECTRONS
 INSULATING STATE
 TOP OF VALENCE BANDS -    BAND     15; K    1; EIG -3.2563328E-01 AU
 BOTTOM OF VIRTUAL BANDS - BAND     16; K    1; EIG -1.4819964E-01 AU
 DIRECT ENERGY BAND GAP:   4.8282 eV
 TTTTTTTTTTTTTTTTTTTTTTTTTTTTTT PDIG        TELAPSE        6.81 TCPU        4.86
 CHARGE NORMALIZATION FACTOR   1.00000000
 TOTAL ATOMIC CHARGES:
  16.0000000  16.0000000
 SUMMED SPIN DENSITY           2.00000000
 TOTAL ATOMIC SPINS  :
   1.0000000   1.0000000
 TTTTTTTTTTTTTTTTTTTTTTTTTTTTTT MOQGAD      TELAPSE        6.82 TCPU        4.87
 TTTTTTTTTTTTTTTTTTTTTTTTTTTTTT SHELLXN     TELAPSE        7.38 TCPU        5.17
 TTTTTTTTTTTTTTTTTTTTTTTTTTTTTT MONMO3      TELAPSE        7.38 TCPU        5.17
 NUMERICALLY INTEGRATED DENSITY     16.9999852310     14.9999929225
 TTTTTTTTTTTTTTTTTTTTTTTTTTTTTT NUMDFT      TELAPSE        8.26 TCPU        5.74
 CYC   6 ETOT(AU) -7.958360549856E+02 DETOT -7.82E-04 tst  5.33E-05 PX  1.76E-02
 TTTTTTTTTTTTTTTTTTTTTTTTTTTTTT DIIS        TELAPSE        8.26 TCPU        5.74
 DIIS TEST: 0.36062E-03 AT SCF   CYCLE   6 - DIIS ACTIVE - HISTORY:     6 CYCLES
 TTTTTTTTTTTTTTTTTTTTTTTTTTTTTT FDIK        TELAPSE        8.26 TCPU        5.74

    ALPHA      ELECTRONS
 INSULATING STATE
 TOP OF VALENCE BANDS -    BAND     17; K    1; EIG -2.3335192E-01 AU
 BOTTOM OF VIRTUAL BANDS - BAND     18; K    1; EIG -7.1118587E-03 AU
 DIRECT ENERGY BAND GAP:   6.1563 eV

    BETA       ELECTRONS
 INSULATING STATE
 TOP OF VALENCE BANDS -    BAND     15; K    1; EIG -3.1912130E-01 AU
 BOTTOM OF VIRTUAL BANDS - BAND     16; K    1; EIG -1.3672685E-01 AU
 DIRECT ENERGY BAND GAP:   4.9632 eV
 TTTTTTTTTTTTTTTTTTTTTTTTTTTTTT PDIG        TELAPSE        8.26 TCPU        5.74
 CHARGE NORMALIZATION FACTOR   1.00000000
 TOTAL ATOMIC CHARGES:
  16.0000000  16.0000000
 SUMMED SPIN DENSITY           2.00000000
 TOTAL ATOMIC SPINS  :
   1.0000000   1.0000000
 TTTTTTTTTTTTTTTTTTTTTTTTTTTTTT MOQGAD      TELAPSE        8.27 TCPU        5.74
 TTTTTTTTTTTTTTTTTTTTTTTTTTTTTT SHELLXN     TELAPSE        8.51 TCPU        5.97
 TTTTTTTTTTTTTTTTTTTTTTTTTTTTTT MONMO3      TELAPSE        8.51 TCPU        5.97
 NUMERICALLY INTEGRATED DENSITY     16.9999857548     14.9999927156
 TTTTTTTTTTTTTTTTTTTTTTTTTTTTTT NUMDFT      TELAPSE        9.00 TCPU        6.45
 CYC   7 ETOT(AU) -7.958361894293E+02 DETOT -1.34E-04 tst  1.57E-05 PX  1.03E-02
 TTTTTTTTTTTTTTTTTTTTTTTTTTTTTT DIIS        TELAPSE        9.00 TCPU        6.46
 DIIS TEST: 0.29429E-05 AT SCF   CYCLE   7 - DIIS ACTIVE - HISTORY:     7 CYCLES
 TTTTTTTTTTTTTTTTTTTTTTTTTTTTTT FDIK        TELAPSE        9.00 TCPU        6.46

    ALPHA      ELECTRONS
 INSULATING STATE
 TOP OF VALENCE BANDS -    BAND     17; K    1; EIG -2.3379652E-01 AU
 BOTTOM OF VIRTUAL BANDS - BAND     18; K    1; EIG -7.1818695E-03 AU
 DIRECT ENERGY BAND GAP:   6.1665 eV

    BETA       ELECTRONS
 INSULATING STATE
 TOP OF VALENCE BANDS -    BAND     15; K    1; EIG -3.1881805E-01 AU
 BOTTOM OF VIRTUAL BANDS - BAND     16; K    1; EIG -1.3620528E-01 AU
 DIRECT ENERGY BAND GAP:   4.9691 eV
 TTTTTTTTTTTTTTTTTTTTTTTTTTTTTT PDIG        TELAPSE        9.00 TCPU        6.46
 CHARGE NORMALIZATION FACTOR   1.00000000
 TOTAL ATOMIC CHARGES:
  16.0000000  16.0000000
 SUMMED SPIN DENSITY           2.00000000
 TOTAL ATOMIC SPINS  :
   1.0000000   1.0000000
 TTTTTTTTTTTTTTTTTTTTTTTTTTTTTT MOQGAD      TELAPSE        9.00 TCPU        6.46
 TTTTTTTTTTTTTTTTTTTTTTTTTTTTTT SHELLXN     TELAPSE        9.24 TCPU        6.69
 TTTTTTTTTTTTTTTTTTTTTTTTTTTTTT MONMO3      TELAPSE        9.24 TCPU        6.70
 NUMERICALLY INTEGRATED DENSITY     16.9999857775     14.9999927040
 TTTTTTTTTTTTTTTTTTTTTTTTTTTTTT NUMDFT      TELAPSE        9.75 TCPU        7.19
 CYC   8 ETOT(AU) -7.958361900106E+02 DETOT -5.81E-07 tst  3.39E-08 PX  4.84E-04
 TTTTTTTTTTTTTTTTTTTTTTTTTTTTTT DIIS        TELAPSE        9.75 TCPU        7.19
 DIIS TEST: 0.47951E-06 AT SCF   CYCLE   8 - DIIS ACTIVE - HISTORY:     8 CYCLES
 TTTTTTTTTTTTTTTTTTTTTTTTTTTTTT FDIK        TELAPSE        9.75 TCPU        7.19

    ALPHA      ELECTRONS
 INSULATING STATE
 TOP OF VALENCE BANDS -    BAND     17; K    1; EIG -2.3419392E-01 AU
 BOTTOM OF VIRTUAL BANDS - BAND     18; K    1; EIG -7.2383608E-03 AU
 DIRECT ENERGY BAND GAP:   6.1758 eV

    BETA       ELECTRONS
 INSULATING STATE
 TOP OF VALENCE BANDS -    BAND     15; K    1; EIG -3.1852878E-01 AU
 BOTTOM OF VIRTUAL BANDS - BAND     16; K    1; EIG -1.3572250E-01 AU
 DIRECT ENERGY BAND GAP:   4.9744 eV
 TTTTTTTTTTTTTTTTTTTTTTTTTTTTTT PDIG        TELAPSE        9.75 TCPU        7.19
 CHARGE NORMALIZATION FACTOR   1.00000000
 TOTAL ATOMIC CHARGES:
  16.0000000  16.0000000
 SUMMED SPIN DENSITY           2.00000000
 TOTAL ATOMIC SPINS  :
   1.0000000   1.0000000
 TTTTTTTTTTTTTTTTTTTTTTTTTTTTTT MOQGAD      TELAPSE        9.76 TCPU        7.19
 TTTTTTTTTTTTTTTTTTTTTTTTTTTTTT SHELLXN     TELAPSE       10.00 TCPU        7.44
 TTTTTTTTTTTTTTTTTTTTTTTTTTTTTT MONMO3      TELAPSE       10.00 TCPU        7.44
 NUMERICALLY INTEGRATED DENSITY     16.9999857959     14.9999926945
 TTTTTTTTTTTTTTTTTTTTTTTTTTTTTT NUMDFT      TELAPSE       10.55 TCPU        7.96
 CYC   9 ETOT(AU) -7.958361901501E+02 DETOT -1.39E-07 tst  2.33E-08 PX  3.94E-04
 TTTTTTTTTTTTTTTTTTTTTTTTTTTTTT DIIS        TELAPSE       10.55 TCPU        7.97
 DIIS TEST: 0.47240E-08 AT SCF   CYCLE   9 - DIIS ACTIVE - HISTORY:     9 CYCLES
 TTTTTTTTTTTTTTTTTTTTTTTTTTTTTT FDIK        TELAPSE       10.55 TCPU        7.97

    ALPHA      ELECTRONS
 INSULATING STATE
 TOP OF VALENCE BANDS -    BAND     17; K    1; EIG -2.3420259E-01 AU
 BOTTOM OF VIRTUAL BANDS - BAND     18; K    1; EIG -7.2414221E-03 AU
 DIRECT ENERGY BAND GAP:   6.1759 eV

    BETA       ELECTRONS
 INSULATING STATE
 TOP OF VALENCE BANDS -    BAND     15; K    1; EIG -3.1852572E-01 AU
 BOTTOM OF VIRTUAL BANDS - BAND     16; K    1; EIG -1.3571664E-01 AU
 DIRECT ENERGY BAND GAP:   4.9745 eV
 TTTTTTTTTTTTTTTTTTTTTTTTTTTTTT PDIG        TELAPSE       10.55 TCPU        7.97
 CHARGE NORMALIZATION FACTOR   1.00000000
 TOTAL ATOMIC CHARGES:
  16.0000000  16.0000000
 SUMMED SPIN DENSITY           2.00000000
 TOTAL ATOMIC SPINS  :
   1.0000000   1.0000000
 TTTTTTTTTTTTTTTTTTTTTTTTTTTTTT MOQGAD      TELAPSE       10.55 TCPU        7.97
 TTTTTTTTTTTTTTTTTTTTTTTTTTTTTT SHELLXN     TELAPSE       10.87 TCPU        8.23
 TTTTTTTTTTTTTTTTTTTTTTTTTTTTTT MONMO3      TELAPSE       10.87 TCPU        8.23
 NUMERICALLY INTEGRATED DENSITY     16.9999857964     14.9999926944
 TTTTTTTTTTTTTTTTTTTTTTTTTTTTTT NUMDFT      TELAPSE       11.39 TCPU        8.73
 CYC  10 ETOT(AU) -7.958361901501E+02 DETOT -3.91E-11 tst  3.52E-11 PX  9.63E-06
 TTTTTTTTTTTTTTTTTTTTTTTTTTTTTT DIIS        TELAPSE       11.39 TCPU        8.73
 DIIS TEST: 0.19870E-10 AT SCF   CYCLE  10 - DIIS ACTIVE - HISTORY:    10 CYCLES
 TTTTTTTTTTTTTTTTTTTTTTTTTTTTTT FDIK        TELAPSE       11.39 TCPU        8.73

    ALPHA      ELECTRONS
 INSULATING STATE
 TOP OF VALENCE BANDS -    BAND     17; K    1; EIG -2.3420079E-01 AU
 BOTTOM OF VIRTUAL BANDS - BAND     18; K    1; EIG -7.2410953E-03 AU
 DIRECT ENERGY BAND GAP:   6.1759 eV

    BETA       ELECTRONS
 INSULATING STATE
 TOP OF VALENCE BANDS -    BAND     15; K    1; EIG -3.1852644E-01 AU
 BOTTOM OF VIRTUAL BANDS - BAND     16; K    1; EIG -1.3571849E-01 AU
 DIRECT ENERGY BAND GAP:   4.9745 eV
 TTTTTTTTTTTTTTTTTTTTTTTTTTTTTT PDIG        TELAPSE       11.39 TCPU        8.73
 CHARGE NORMALIZATION FACTOR   1.00000000
 TOTAL ATOMIC CHARGES:
  15.9999999  16.0000001
 SUMMED SPIN DENSITY           2.00000000
 TOTAL ATOMIC SPINS  :
   1.0000000   1.0000000
 TTTTTTTTTTTTTTTTTTTTTTTTTTTTTT MOQGAD      TELAPSE       11.39 TCPU        8.73
 TTTTTTTTTTTTTTTTTTTTTTTTTTTTTT SHELLXN     TELAPSE       11.67 TCPU        9.00

 ::: DIPOLE MOMENT ALONG NON PERIODIC DIRECTIONS:
 ::: A.U.     (X)  1.90101E-07   (Y)  0.00000E+00   (Z)  0.00000E+00
 ::: DEBYE        -4.83190E-07       -0.00000E+00       -0.00000E+00

 +++ ENERGIES IN A.U. +++
 ::: EXT EL-POLE                                   2.2554673971099E+01
 ::: EXT EL-SPHEROPOLE                             0.0000000000000E+00
 ::: BIELET ZONE E-E                               3.8905254835827E+02
 ::: TOTAL E-E                                     4.1160722232937E+02
 ::: TOTAL E-N + N-E                              -2.0362466766737E+03
 ::: TOTAL N-N                                     7.1676912870265E+01
 ::: KINETIC ENERGY                                7.9614048769562E+02
 ::: PSEUDO TOTAL   ENERGY                        -7.5682205377844E+02
 ::: VIRIAL COEFFICIENT                            1.0253183401834E+00
 TTTTTTTTTTTTTTTTTTTTTTTTTTTTTT MONMO3      TELAPSE       11.67 TCPU        9.00
 NUMERICALLY INTEGRATED DENSITY     16.9999857963     14.9999926944
 TTTTTTTTTTTTTTTTTTTTTTTTTTTTTT NUMDFT      TELAPSE       12.16 TCPU        9.47
 CYC  11 ETOT(AU) -7.958361901503E+02 DETOT -1.75E-10 tst  1.52E-12 PX  9.63E-06

 == SCF ENDED - CONVERGENCE ON ENERGY      E(AU) -7.9583619015030E+02 CYCLES  11


 ENERGY EXPRESSION=HARTREE+FOCK EXCH*0.00000+(HSE06      EXCH)*1.00000+PBE        CORR


 TOTAL ENERGY(DFT)(AU)( 11) -7.9583619015030E+02 DE-1.8E-10 tester 1.5E-12
 TTTTTTTTTTTTTTTTTTTTTTTTTTTTTT EDFT        TELAPSE       12.16 TCPU        9.47

 *******************************************************************************
 *                             FORCE CALCULATION                               *
 *******************************************************************************

 TTTTTTTTTTTTTTTTTTTTTTTTTTTTTT NUMDFG      TELAPSE       14.75 TCPU       11.01
 INFORMATION **** GENPOG **** BIPO BUFFER LENGTH (WORDS) =       19100
 TTTTTTTTTTTTTTTTTTTTTTTTTTTTTT SHELXG      TELAPSE       16.38 TCPU       12.17

 CARTESIAN FORCES IN HARTREE/BOHR (ANALYTICAL)
   ATOM                     X                   Y                   Z
   1  16            -2.929356745610E-02  9.005390457916E-15  3.908968667407E-14
   2  16             2.929356745637E-02 -8.562796554688E-15 -3.848455047480E-14

 RESULTANT FORCE     2.700062395888E-13  4.425939032277E-16  6.051361992674E-16

 SYMMETRY ALLOWED FORCES (ANALYTICAL) (DIRECTION, FORCE)

    1 -4.1427360E-02
 TTTTTTTTTTTTTTTTTTTTTTTTTTTTTT TOTGRA      TELAPSE       16.39 TCPU       12.18
 INFORMATION **** opta001 **** GEOMETRY OUTPUT FILE
 CLASSICAL MODEL (SCHLEGEL) USED AS INITIAL HESSIAN MATRIX
 REFERENCE GEOMETRY DEFINED

 MAX GRADIENT      0.041427  THRESHOLD              0.000450 CONVERGED NO
 RMS GRADIENT      0.041427  THRESHOLD              0.000300 CONVERGED NO

 GRADIENT NORM     0.041427  GRADIENT THRESHOLD     0.500000

 EIGENVALUES OF THE ESTIMATED HESSIAN
  0.5227    

 INITIAL TRUST RADIUS    0.5000000000E+00

 PREDICTED ENERGY CHANGE    -0.164E-02

 INITIAL DISPLACEMENTS
 -0.079258
 TTTTTTTTTTTTTTTTTTTTTTTTTTTTTT OPTI        TELAPSE       16.40 TCPU       12.18

 OPTOPTOPTOPTOPTOPTOPTOPTOPTOPTOPTOPTOPTOPTOPTOPTOPTOPTOPTOPTOPTOPTOPTOPTOPTOPT

 - INFORMATION ON SCF MOVED TO SCFOUT.LOG
 GEOMETRY OPTIMIZATION INFORMATION STORED IN OPTINFO.DAT

 OPTOPTOPTOPTOPTOPTOPTOPTOPTOPTOPTOPTOPTOPTOPTOPTOPTOPTOPTOPTOPTOPTOPTOPTOPTOPT
 *******************************************************************************
 COORDINATE OPTIMIZATION - POINT    2
 *******************************************************************************
 ATOMS IN THE ASYMMETRIC UNIT    2 - ATOMS IN THE UNIT CELL:    2
     ATOM             X(ANGSTROM)         Y(ANGSTROM)         Z(ANGSTROM)
 *******************************************************************************
      1 T  16 S    -2.965731126695E-02  0.000000000000E+00  0.000000000000E+00
      2 T  16 S     1.919657311267E+00  0.000000000000E+00  0.000000000000E+00

 T = ATOM BELONGING TO THE ASYMMETRIC UNIT

 TOTAL ENERGY(DFT)(AU)(  6) -7.9583721669774E+02     DE (AU)   -1.027E-03

 UPDATED TRUST RADIUS     0.500E+00

 SYMMETRY ALLOWED FORCES  (COORDINATE, FORCE)

    1  1.2810114E-02

 GRADIENT NORM     0.012810  GRADIENT THRESHOLD     0.500000

   I  NORM. DIRECT.   -DISPLACEMENT TO CURRENT POINT
   1  1.00000E+00             7.92585E-02
 DISPLACEMENT         ENERGY           ENERGY GAIN 
  0.079258          -7.9583721670E+02  1.0265474433E-03
 GRADIENT             AT PREVIOUS POINT       AT CURRENT POINT
 NORM                 4.14273603869E-02      1.28101141856E-02
 PROJ. ON DIRECTION   4.14273603869E-02     -1.28101141856E-02

 EIGENVALUES OF THE ESTIMATED HESSIAN
  0.6843    

 PREDICTED ENERGY CHANGE    -0.120E-03
 GRADIENT INFORMATIONS AT -- PREDICTED POINT WRT CURR.POINT
   I  PREV.POINT  CURR.POINT  PRED.POINT  NEW COORD.
    1    0.0414     -0.0128      0.0000      0.0187

 MAX GRADIENT      0.012810  THRESHOLD              0.000450 CONVERGED NO
 RMS GRADIENT      0.012810  THRESHOLD              0.000300 CONVERGED NO
 MAX DISPLAC.      0.018720  THRESHOLD              0.001800 CONVERGED NO
 RMS DISPLAC.      0.018720  THRESHOLD              0.001200 CONVERGED NO
 TTTTTTTTTTTTTTTTTTTTTTTTTTTTTT OPTI        TELAPSE       25.91 TCPU       20.04
 *******************************************************************************
 COORDINATE OPTIMIZATION - POINT    3
 *******************************************************************************
 ATOMS IN THE ASYMMETRIC UNIT    2 - ATOMS IN THE UNIT CELL:    2
     ATOM             X(ANGSTROM)         Y(ANGSTROM)         Z(ANGSTROM)
 *******************************************************************************
      1 T  16 S    -2.265267938167E-02  0.000000000000E+00  0.000000000000E+00
      2 T  16 S     1.912652679382E+00  0.000000000000E+00  0.000000000000E+00

 T = ATOM BELONGING TO THE ASYMMETRIC UNIT

 TOTAL ENERGY(DFT)(AU)(  4) -7.9583735166552E+02     DE (AU)   -1.350E-04

 UPDATED TRUST RADIUS     0.100E+01

 SYMMETRY ALLOWED FORCES  (COORDINATE, FORCE)

    1  1.4073016E-03

 GRADIENT NORM     0.001407  GRADIENT THRESHOLD     0.500000

   I  NORM. DIRECT.   -DISPLACEMENT TO CURRENT POINT
   1 -1.00000E+00            -1.87197E-02
 DISPLACEMENT         ENERGY           ENERGY GAIN 
  0.018720          -7.9583735167E+02  1.3496777410E-04
 GRADIENT             AT PREVIOUS POINT       AT CURRENT POINT
 NORM                 1.28101141856E-02      1.40730159195E-03
 PROJ. ON DIRECTION   1.28101141856E-02      1.40730159195E-03

 EIGENVALUES OF THE ESTIMATED HESSIAN
  0.6091    

 PREDICTED ENERGY CHANGE    -0.163E-05
 GRADIENT INFORMATIONS AT -- PREDICTED POINT WRT CURR.POINT
   I  PREV.POINT  CURR.POINT  PRED.POINT  NEW COORD.
    1   -0.0128     -0.0014      0.0000      0.0023

 MAX GRADIENT      0.001407  THRESHOLD              0.000450 CONVERGED NO
 RMS GRADIENT      0.001407  THRESHOLD              0.000300 CONVERGED NO
 MAX DISPLAC.      0.002310  THRESHOLD              0.001800 CONVERGED NO
 RMS DISPLAC.      0.002310  THRESHOLD              0.001200 CONVERGED NO
 TTTTTTTTTTTTTTTTTTTTTTTTTTTTTT OPTI        TELAPSE       32.53 TCPU       26.01
 *******************************************************************************
 COORDINATE OPTIMIZATION - POINT    4
 *******************************************************************************
 ATOMS IN THE ASYMMETRIC UNIT    2 - ATOMS IN THE UNIT CELL:    2
     ATOM             X(ANGSTROM)         Y(ANGSTROM)         Z(ANGSTROM)
 *******************************************************************************
      1 T  16 S    -2.178818831666E-02  0.000000000000E+00  0.000000000000E+00
      2 T  16 S     1.911788188317E+00  0.000000000000E+00  0.000000000000E+00

 T = ATOM BELONGING TO THE ASYMMETRIC UNIT

 TOTAL ENERGY(DFT)(AU)(  4) -7.9583735328823E+02     DE (AU)   -1.623E-06

 UPDATED TRUST RADIUS     0.200E+01

 SYMMETRY ALLOWED FORCES  (COORDINATE, FORCE)

    1 -6.8541078E-05

 GRADIENT NORM     0.000069  GRADIENT THRESHOLD     0.500000

   I  NORM. DIRECT.   -DISPLACEMENT TO CURRENT POINT
   1 -1.00000E+00            -2.31033E-03
 DISPLACEMENT         ENERGY           ENERGY GAIN 
  0.002310          -7.9583735329E+02  1.6227169226E-06
 GRADIENT             AT PREVIOUS POINT       AT CURRENT POINT
 NORM                 1.40730159195E-03      6.85410783164E-05
 PROJ. ON DIRECTION   1.40730159195E-03     -6.85410783164E-05

 EIGENVALUES OF THE ESTIMATED HESSIAN
  0.6388    

 PREDICTED ENERGY CHANGE    -0.368E-08
 GRADIENT INFORMATIONS AT -- PREDICTED POINT WRT CURR.POINT
   I  PREV.POINT  CURR.POINT  PRED.POINT  NEW COORD.
    1   -0.0014      0.0001      0.0000     -0.0001

 MAX GRADIENT      0.000069  THRESHOLD              0.000450 CONVERGED YES
 RMS GRADIENT      0.000069  THRESHOLD              0.000300 CONVERGED YES
 MAX DISPLAC.      0.000107  THRESHOLD              0.001800 CONVERGED YES
 RMS DISPLAC.      0.000107  THRESHOLD              0.001200 CONVERGED YES

 CONVERGENCE TESTS SATISFIED AFTER   4 ENERGY AND GRADIENT CALCULATIONS
 +++++++++++++++++++++++++++++++++++++++++++++++++++++++++++++++++++++++++++++++
 FINALRUN OPTION: RE-STARTING OPTIMIZATION
 +++++++++++++++++++++++++++++++++++++++++++++++++++++++++++++++++++++++++++++++
 TTTTTTTTTTTTTTTTTTTTTTTTTTTTTT OPTI        TELAPSE       40.06 TCPU       32.33
 *******************************************************************************
 COORDINATE OPTIMIZATION - POINT    5
 *******************************************************************************
 ATOMS IN THE ASYMMETRIC UNIT    2 - ATOMS IN THE UNIT CELL:    2
     ATOM             X(ANGSTROM)         Y(ANGSTROM)         Z(ANGSTROM)
 *******************************************************************************
      1 T  16 S    -2.182833700662E-02  0.000000000000E+00  0.000000000000E+00
      2 T  16 S     1.911828337007E+00  0.000000000000E+00  0.000000000000E+00

 T = ATOM BELONGING TO THE ASYMMETRIC UNIT

 REFERENCE GEOMETRY WILL BE CHANGED

 TOTAL ENERGY(DFT)(AU)(  3) -7.9583736296147E+02     DE (AU)   -9.673E-06

 SYMMETRY ALLOWED FORCES  (COORDINATE, FORCE)

    1  4.7755537E-05

 GRADIENT NORM     0.000048  GRADIENT THRESHOLD     0.500000

 HESSIAN UPDATE SKIPPED

   I  NORM. DIRECT.   -DISPLACEMENT TO CURRENT POINT
   1  1.00000E+00             1.07296E-04
 DISPLACEMENT         ENERGY           ENERGY GAIN 
  0.000107          -7.9583736296E+02  9.6732408110E-06
 GRADIENT             AT PREVIOUS POINT       AT CURRENT POINT
 NORM                 6.85410783164E-05      4.77555369168E-05
 PROJ. ON DIRECTION   6.85410783164E-05     -4.77555369168E-05

 EIGENVALUES OF THE ESTIMATED HESSIAN
  0.6388    

 PREDICTED ENERGY CHANGE    -0.179E-08
 GRADIENT INFORMATIONS AT -- PREDICTED POINT WRT CURR.POINT
   I  PREV.POINT  CURR.POINT  PRED.POINT  NEW COORD.
    1    0.0001     -0.0000      0.0000      0.0001

 MAX GRADIENT      0.000048  THRESHOLD              0.000450 CONVERGED YES
 RMS GRADIENT      0.000048  THRESHOLD              0.000300 CONVERGED YES
 MAX DISPLAC.      0.000075  THRESHOLD              0.001800 CONVERGED YES
 RMS DISPLAC.      0.000075  THRESHOLD              0.001200 CONVERGED YES

 CONVERGENCE TESTS SATISFIED AFTER   5 ENERGY AND GRADIENT CALCULATIONS

 ******************************************************************
 * OPT END - CONVERGED * E(AU):  -7.958373629615E+02  POINTS    5 *
 ******************************************************************

   ALPHA BAND GAP:                5.9497  eV 
   BETA BAND GAP:                 4.6668  eV 


 NEIGHBORS OF THE NON-EQUIVALENT ATOMS

 N = NUMBER OF NEIGHBORS AT DISTANCE R
    ATOM  N     R/ANG      R/AU   NEIGHBORS (ATOM LABELS AND CELL INDICES)
   1 S    1     1.9337     3.6541    2 S    0 0 0

   2 S    1     1.9337     3.6541    1 S    0 0 0

 TTTTTTTTTTTTTTTTTTTTTTTTTTTTTT AFTER FIRST TELAPSE       45.72 TCPU       37.57
 MMMMMMMMMMMMMMMMMMMMMMMMMMMMMMMMMMMMMMMMMMMMMMMMMMMMMMMMMMMMMMMMMMMMMMMMMMMMMMM
     ALPHA+BETA ELECTRONS
 MULLIKEN POPULATION ANALYSIS - NO. OF ELECTRONS   32.000000

  ATOM    Z CHARGE  A.O. POPULATION

   1 S   16 16.000  2.010  0.475  1.499  1.793  0.128  1.421  1.429  1.429
                    0.606  0.605  0.605  0.917  1.096  1.096  0.127  0.349
                    0.349  0.006  0.022  0.000  0.018  0.022
   2 S   16 16.000  2.010  0.475  1.499  1.793  0.128  1.421  1.429  1.429
                    0.606  0.605  0.605  0.917  1.096  1.096  0.127  0.349
                    0.349  0.006  0.022  0.000  0.018  0.022

  ATOM    Z CHARGE  SHELL POPULATION

   1 S   16 16.000  2.010  0.475  1.499  1.793  0.128  4.279  1.816  3.108
                    0.825  0.067
   2 S   16 16.000  2.010  0.475  1.499  1.793  0.128  4.279  1.816  3.108
                    0.825  0.067
 TTTTTTTTTTTTTTTTTTTTTTTTTTTTTT AFTER FIRST TELAPSE       45.72 TCPU       37.57
 MMMMMMMMMMMMMMMMMMMMMMMMMMMMMMMMMMMMMMMMMMMMMMMMMMMMMMMMMMMMMMMMMMMMMMMMMMMMMMM
     ALPHA-BETA ELECTRONS
 MULLIKEN POPULATION ANALYSIS - NO. OF ELECTRONS    2.000000

  ATOM    Z CHARGE  A.O. POPULATION

   1 S   16  1.000  0.000  0.000 -0.001  0.003  0.011  0.000  0.016  0.016
                   -0.000 -0.002 -0.002 -0.001  0.392  0.392 -0.013  0.093
                    0.093  0.000  0.000  0.000  0.001  0.000
   2 S   16  1.000  0.000  0.000 -0.001  0.003  0.011  0.000  0.016  0.016
                   -0.000 -0.002 -0.002 -0.001  0.392  0.392 -0.013  0.093
                    0.093  0.000  0.000  0.000  0.001  0.000

  ATOM    Z CHARGE  SHELL POPULATION

   1 S   16  1.000  0.000  0.000 -0.001  0.003  0.011  0.032 -0.004  0.784
                    0.173  0.001
   2 S   16  1.000  0.000  0.000 -0.001  0.003  0.011  0.032 -0.004  0.784
                    0.173  0.001
 EIGENVECTORS IN FORTRAN UNIT  8

 FINAL OPTIMIZED GEOMETRY - DIMENSIONALITY OF THE SYSTEM      0
 (NON PERIODIC DIRECTION: LATTICE PARAMETER FORMALLY SET TO 500)
 *******************************************************************************
 ATOMS IN THE ASYMMETRIC UNIT    2 - ATOMS IN THE UNIT CELL:    2
     ATOM             X(ANGSTROM)         Y(ANGSTROM)         Z(ANGSTROM)
 *******************************************************************************
      1 T  16 S    -2.182833700662E-02  0.000000000000E+00  0.000000000000E+00
      2 T  16 S     1.911828337007E+00  0.000000000000E+00  0.000000000000E+00

 T = ATOM BELONGING TO THE ASYMMETRIC UNIT
 INFORMATION **** fort.34 **** GEOMETRY OUTPUT FILE

 ****    1 SYMMOPS - TRANSLATORS IN FRACTIONAL UNITS
 **** MATRICES AND TRANSLATORS IN THE CRYSTALLOGRAPHIC REFERENCE FRAME
   V INV                    ROTATION MATRICES                   TRANSLATORS
   1   1  1.00  0.00  0.00  0.00  1.00  0.00  0.00  0.00  1.00  0.00  0.00  0.00
 TTTTTTTTTTTTTTTTTTTTTTTTTTTTTT END         TELAPSE       45.73 TCPU       37.58
 EEEEEEEEEE TERMINATION  DATE 15 07 2019 TIME 21:30:30.1
