********************************************************************************
*                       GENERAL UTILITY LATTICE PROGRAM                        *
*                                 Julian Gale                                  *
*                       Curtin Institute for Computation                       *
*                           Department of Chemistry                            *
*                    Curtin University, Western Australia                      *
********************************************************************************
* Version = 4.5.3 * Last modified =  19th April 2017                           *
********************************************************************************

  ReaxFF: Bond order cutoffs: 

  Species number =    1   4.04098
  Species number =    2   4.04098


*  optimise     - perform optimisation run                                     *
*  conp         - constant pressure calculation                                *
********************************************************************************

  Job Started  at 06:34.35 11th July       2019                               

  Number of CPUs =     1


  Total number of configurations input =   1

********************************************************************************
*  Input for Configuration =   1 : main-geometry                               *
********************************************************************************

  Formula = Fe4S8                                                       

  Number of irreducible atoms/shells =       2


  Total number atoms/shells =      12

  Dimensionality = 3               :  Bulk   


  Cell type = Cubic       

  Number of symmetry operators = 24

--------------------------------------------------------------------------------
  Operator : Rotation matrix                            : Translation vector    
--------------------------------------------------------------------------------
     1          1.000000    0.000000    0.000000            0.000000
                0.000000    1.000000    0.000000            0.000000
                0.000000    0.000000    1.000000            0.000000
     2         -1.000000    0.000000    0.000000            0.000000
                0.000000   -1.000000    0.000000            0.000000
                0.000000    0.000000   -1.000000            0.000000
     3         -1.000000    0.000000    0.000000            0.500000
                0.000000   -1.000000    0.000000            0.000000
                0.000000    0.000000    1.000000            0.500000
     4          1.000000    0.000000    0.000000            0.500000
                0.000000    1.000000    0.000000            0.000000
                0.000000    0.000000   -1.000000            0.500000
     5          1.000000    0.000000    0.000000            0.500000
                0.000000   -1.000000    0.000000            0.500000
                0.000000    0.000000   -1.000000            0.000000
     6         -1.000000    0.000000    0.000000            0.500000
                0.000000    1.000000    0.000000            0.500000
                0.000000    0.000000    1.000000            0.000000
     7         -1.000000    0.000000    0.000000            0.000000
                0.000000    1.000000    0.000000            0.500000
                0.000000    0.000000   -1.000000            0.500000
     8          1.000000    0.000000    0.000000            0.000000
                0.000000   -1.000000    0.000000            0.500000
                0.000000    0.000000    1.000000            0.500000
     9          0.000000    1.000000    0.000000            0.000000
                0.000000    0.000000    1.000000            0.000000
                1.000000    0.000000    0.000000            0.000000
    10          0.000000   -1.000000    0.000000            0.000000
                0.000000    0.000000   -1.000000            0.000000
               -1.000000    0.000000    0.000000            0.000000
    11          0.000000   -1.000000    0.000000            0.500000
                0.000000    0.000000   -1.000000            0.500000
                1.000000    0.000000    0.000000            0.000000
    12          0.000000    1.000000    0.000000            0.500000
                0.000000    0.000000    1.000000            0.500000
               -1.000000    0.000000    0.000000            0.000000
    13          0.000000    1.000000    0.000000            0.000000
                0.000000    0.000000   -1.000000            0.500000
               -1.000000    0.000000    0.000000            0.500000
    14          0.000000   -1.000000    0.000000            0.000000
                0.000000    0.000000    1.000000            0.500000
                1.000000    0.000000    0.000000            0.500000
    15          0.000000   -1.000000    0.000000            0.500000
                0.000000    0.000000    1.000000            0.000000
               -1.000000    0.000000    0.000000            0.500000
    16          0.000000    1.000000    0.000000            0.500000
                0.000000    0.000000   -1.000000            0.000000
                1.000000    0.000000    0.000000            0.500000
    17          0.000000    0.000000    1.000000            0.000000
                1.000000    0.000000    0.000000            0.000000
                0.000000    1.000000    0.000000            0.000000
    18          0.000000    0.000000   -1.000000            0.000000
               -1.000000    0.000000    0.000000            0.000000
                0.000000   -1.000000    0.000000            0.000000
    19          0.000000    0.000000   -1.000000            0.000000
               -1.000000    0.000000    0.000000            0.500000
                0.000000    1.000000    0.000000            0.500000
    20          0.000000    0.000000    1.000000            0.000000
                1.000000    0.000000    0.000000            0.500000
                0.000000   -1.000000    0.000000            0.500000
    21          0.000000    0.000000    1.000000            0.500000
               -1.000000    0.000000    0.000000            0.000000
                0.000000   -1.000000    0.000000            0.500000
    22          0.000000    0.000000   -1.000000            0.500000
                1.000000    0.000000    0.000000            0.000000
                0.000000    1.000000    0.000000            0.500000
    23          0.000000    0.000000   -1.000000            0.500000
                1.000000    0.000000    0.000000            0.500000
                0.000000   -1.000000    0.000000            0.000000
    24          0.000000    0.000000    1.000000            0.500000
               -1.000000    0.000000    0.000000            0.500000
                0.000000    1.000000    0.000000            0.000000
--------------------------------------------------------------------------------

  Cartesian lattice vectors (Angstroms) :

        5.380000    0.000000    0.000000
        0.000000    5.380000    0.000000
        0.000000    0.000000    5.380000

  Cell parameters (Angstroms/Degrees):

  a =       5.3800    alpha =  90.0000
  b =       5.3800    beta  =  90.0000
  c =       5.3800    gamma =  90.0000

  Initial cell volume =         155.720872 Angs**3

  Temperature of configuration =  0.000     K 

  Pressure of configuration =         0.000 GPa 

  Fractional coordinates of asymmetric unit :

--------------------------------------------------------------------------------
   No.  Atomic       x           y          z         Charge      Occupancy
        Label      (Frac)      (Frac)     (Frac)        (e)         (Frac)  
--------------------------------------------------------------------------------
      1 Fe    c    0.000000    0.000000    0.000000     0.00000    1.000000    
      2 S     c    0.338000 *  0.338000    0.338000     0.00000    1.000000    
--------------------------------------------------------------------------------


  Constraints : 

--------------------------------------------------------------------------------
  Constraint no.      Unconstrained     Constrained    Coefficient    Offset
                         Variable         Variable
--------------------------------------------------------------------------------
           1                 2 x             2 y         1.00000      0.0000
           2                 2 x             2 z         1.00000      0.0000
--------------------------------------------------------------------------------


********************************************************************************
*  General input information                                                   *
********************************************************************************

  Species output for all configurations : 

--------------------------------------------------------------------------------
  Species    Type    Atomic    Atomic    Charge       Radii (Angs)     Library
                     Number     Mass       (e)     Cova   Ionic  VDW   Symbol
--------------------------------------------------------------------------------
    Fe       Core       26      55.85   0.000000   1.340  0.000  2.000          
    S        Core       16      32.07   0.000000   1.020  0.000  1.700          
--------------------------------------------------------------------------------


  Lattice summation method               =    Ewald          (3-D)
                                         =    Parry          (2-D)
                                         =    Saunders et al (1-D)
  Accuracy factor for lattice sums       =   12.000


  Time limit = Infinity

  ReaxFF: Bond order cutoffs: 

  Species number =    1   4.04098
  Species number =    2   4.04098



  Maximum range for interatomic potentials =    100000.000000 Angstroms

  ReaxFF forcefield to be used

  ReaxFF Coulomb cutoff =  10.0000 Ang
  ReaxFF VDW     cutoff =  10.0000 Ang
  ReaxFF H-bond  cutoff =   7.5000 Ang

  ReaxFF pairwise bond order       threshold = 0.00100000000000
  ReaxFF angle/torsion bond order  threshold = 0.00100000000000
  ReaxFF bond order double product threshold = 0.00100000000000
  ReaxFF bond order triple product threshold = 0.00001000000000
  ReaxFF hydrogen-bond bond order  threshold = 0.01000000000000


********************************************************************************
*  Output for configuration   1 : main-geometry                                *
********************************************************************************


  Increasing maxneigh to     26

  ReaxFF: Delta and Bond Order prime: 

   1  2.764770    2  0.0024    2  0.0024    2  0.0024    2  0.0024    3  0.0024    3  0.0024
    3  0.0024    3  0.0024    4  0.0024    4  0.0024    4  0.0024    4  0.0024
    5  0.2404    6  0.2404    7  0.0108    7  0.8651    8  0.8651    8  0.0108
    9  0.0108    9  0.8651   10  0.8651   10  0.0108   11  0.0108   11  0.8651
   12  0.8651   12  0.0108
   2  2.764770    1  0.0024    1  0.0024    1  0.0024    1  0.0024    3  0.0024    3  0.0024
    3  0.0024    3  0.0024    4  0.0024    4  0.0024    4  0.0024    4  0.0024
    5  0.8651    5  0.0108    6  0.0108    6  0.8651    7  0.2404    8  0.2404
    9  0.8651    9  0.0108   10  0.0108   10  0.8651   11  0.0108   11  0.8651
   12  0.8651   12  0.0108
   3  2.764770    1  0.0024    1  0.0024    1  0.0024    1  0.0024    2  0.0024    2  0.0024
    2  0.0024    2  0.0024    4  0.0024    4  0.0024    4  0.0024    4  0.0024
    5  0.8651    5  0.0108    6  0.0108    6  0.8651    7  0.0108    7  0.8651
    8  0.8651    8  0.0108    9  0.2404   10  0.2404   11  0.8651   11  0.0108
   12  0.0108   12  0.8651
   4  2.764770    1  0.0024    1  0.0024    1  0.0024    1  0.0024    2  0.0024    2  0.0024
    2  0.0024    2  0.0024    3  0.0024    3  0.0024    3  0.0024    3  0.0024
    5  0.8651    5  0.0108    6  0.0108    6  0.8651    7  0.8651    7  0.0108
    8  0.0108    8  0.8651    9  0.0108    9  0.8651   10  0.8651   10  0.0108
   11  0.2404   12  0.2404
   5  2.093572    1  0.2404    2  0.8651    2  0.0108    3  0.8651    3  0.0108    4  0.8651
    4  0.0108    6  0.0873    7  0.0097    7  0.0097    8  0.1800    8  0.1800
    9  0.0097    9  0.0097   10  0.1800   10  0.1800   11  0.0097   11  0.0097
   12  0.1800   12  0.1800
   6  2.093572    1  0.2404    2  0.0108    2  0.8651    3  0.0108    3  0.8651    4  0.0108
    4  0.8651    5  0.0873    7  0.1800    7  0.1800    8  0.0097    8  0.0097
    9  0.1800    9  0.1800   10  0.0097   10  0.0097   11  0.1800   11  0.1800
   12  0.0097   12  0.0097
   7  2.093572    1  0.0108    1  0.8651    2  0.2404    3  0.0108    3  0.8651    4  0.8651
    4  0.0108    5  0.0097    5  0.0097    6  0.1800    6  0.1800    8  0.0873
    9  0.0097    9  0.0097   10  0.1800   10  0.1800   11  0.0097   11  0.0097
   12  0.1800   12  0.1800
   8  2.093572    1  0.8651    1  0.0108    2  0.2404    3  0.8651    3  0.0108    4  0.0108
    4  0.8651    5  0.1800    5  0.1800    6  0.0097    6  0.0097    7  0.0873
    9  0.1800    9  0.1800   10  0.0097   10  0.0097   11  0.1800   11  0.1800
   12  0.0097   12  0.0097
   9  2.093572    1  0.0108    1  0.8651    2  0.8651    2  0.0108    3  0.2404    4  0.0108
    4  0.8651    5  0.0097    5  0.0097    6  0.1800    6  0.1800    7  0.0097
    7  0.0097    8  0.1800    8  0.1800   10  0.0873   11  0.0097   11  0.0097
   12  0.1800   12  0.1800
  10  2.093572    1  0.8651    1  0.0108    2  0.0108    2  0.8651    3  0.2404    4  0.8651
    4  0.0108    5  0.1800    5  0.1800    6  0.0097    6  0.0097    7  0.1800
    7  0.1800    8  0.0097    8  0.0097    9  0.0873   11  0.1800   11  0.1800
   12  0.0097   12  0.0097
  11  2.093572    1  0.0108    1  0.8651    2  0.0108    2  0.8651    3  0.8651    3  0.0108
    4  0.2404    5  0.0097    5  0.0097    6  0.1800    6  0.1800    7  0.0097
    7  0.0097    8  0.1800    8  0.1800    9  0.0097    9  0.0097   10  0.1800
   10  0.1800   12  0.0873
  12  2.093572    1  0.8651    1  0.0108    2  0.8651    2  0.0108    3  0.0108    3  0.8651
    4  0.2404    5  0.1800    5  0.1800    6  0.0097    6  0.0097    7  0.1800
    7  0.1800    8  0.0097    8  0.0097    9  0.1800    9  0.1800   10  0.0097
   10  0.0097   11  0.0873

  ReaxFF: Bond Order sigma prime: 

   1    2  0.0024    2  0.0024    2  0.0024    2  0.0024    3  0.0024    3  0.0024
    3  0.0024    3  0.0024    4  0.0024    4  0.0024    4  0.0024    4  0.0024
    5  0.2404    6  0.2404    7  0.0108    7  0.8651    8  0.8651    8  0.0108
    9  0.0108    9  0.8651   10  0.8651   10  0.0108   11  0.0108   11  0.8651
   12  0.8651   12  0.0108
   2    1  0.0024    1  0.0024    1  0.0024    1  0.0024    3  0.0024    3  0.0024
    3  0.0024    3  0.0024    4  0.0024    4  0.0024    4  0.0024    4  0.0024
    5  0.8651    5  0.0108    6  0.0108    6  0.8651    7  0.2404    8  0.2404
    9  0.8651    9  0.0108   10  0.0108   10  0.8651   11  0.0108   11  0.8651
   12  0.8651   12  0.0108
   3    1  0.0024    1  0.0024    1  0.0024    1  0.0024    2  0.0024    2  0.0024
    2  0.0024    2  0.0024    4  0.0024    4  0.0024    4  0.0024    4  0.0024
    5  0.8651    5  0.0108    6  0.0108    6  0.8651    7  0.0108    7  0.8651
    8  0.8651    8  0.0108    9  0.2404   10  0.2404   11  0.8651   11  0.0108
   12  0.0108   12  0.8651
   4    1  0.0024    1  0.0024    1  0.0024    1  0.0024    2  0.0024    2  0.0024
    2  0.0024    2  0.0024    3  0.0024    3  0.0024    3  0.0024    3  0.0024
    5  0.8651    5  0.0108    6  0.0108    6  0.8651    7  0.8651    7  0.0108
    8  0.0108    8  0.8651    9  0.0108    9  0.8651   10  0.8651   10  0.0108
   11  0.2404   12  0.2404
   5    1  0.2404    2  0.8651    2  0.0108    3  0.8651    3  0.0108    4  0.8651
    4  0.0108    6  0.0873    7  0.0097    7  0.0097    8  0.1800    8  0.1800
    9  0.0097    9  0.0097   10  0.1800   10  0.1800   11  0.0097   11  0.0097
   12  0.1800   12  0.1800
   6    1  0.2404    2  0.0108    2  0.8651    3  0.0108    3  0.8651    4  0.0108
    4  0.8651    5  0.0873    7  0.1800    7  0.1800    8  0.0097    8  0.0097
    9  0.1800    9  0.1800   10  0.0097   10  0.0097   11  0.1800   11  0.1800
   12  0.0097   12  0.0097
   7    1  0.0108    1  0.8651    2  0.2404    3  0.0108    3  0.8651    4  0.8651
    4  0.0108    5  0.0097    5  0.0097    6  0.1800    6  0.1800    8  0.0873
    9  0.0097    9  0.0097   10  0.1800   10  0.1800   11  0.0097   11  0.0097
   12  0.1800   12  0.1800
   8    1  0.8651    1  0.0108    2  0.2404    3  0.8651    3  0.0108    4  0.0108
    4  0.8651    5  0.1800    5  0.1800    6  0.0097    6  0.0097    7  0.0873
    9  0.1800    9  0.1800   10  0.0097   10  0.0097   11  0.1800   11  0.1800
   12  0.0097   12  0.0097
   9    1  0.0108    1  0.8651    2  0.8651    2  0.0108    3  0.2404    4  0.0108
    4  0.8651    5  0.0097    5  0.0097    6  0.1800    6  0.1800    7  0.0097
    7  0.0097    8  0.1800    8  0.1800   10  0.0873   11  0.0097   11  0.0097
   12  0.1800   12  0.1800
  10    1  0.8651    1  0.0108    2  0.0108    2  0.8651    3  0.2404    4  0.8651
    4  0.0108    5  0.1800    5  0.1800    6  0.0097    6  0.0097    7  0.1800
    7  0.1800    8  0.0097    8  0.0097    9  0.0873   11  0.1800   11  0.1800
   12  0.0097   12  0.0097
  11    1  0.0108    1  0.8651    2  0.0108    2  0.8651    3  0.8651    3  0.0108
    4  0.2404    5  0.0097    5  0.0097    6  0.1800    6  0.1800    7  0.0097
    7  0.0097    8  0.1800    8  0.1800    9  0.0097    9  0.0097   10  0.1800
   10  0.1800   12  0.0873
  12    1  0.8651    1  0.0108    2  0.8651    2  0.0108    3  0.0108    3  0.8651
    4  0.2404    5  0.1800    5  0.1800    6  0.0097    6  0.0097    7  0.1800
    7  0.1800    8  0.0097    8  0.0097    9  0.1800    9  0.1800   10  0.0097
   10  0.0097   11  0.0873

  ReaxFF: Bond Order pi prime: 

   1    2  0.0000    2  0.0000    2  0.0000    2  0.0000    3  0.0000    3  0.0000
    3  0.0000    3  0.0000    4  0.0000    4  0.0000    4  0.0000    4  0.0000
    5  0.0000    6  0.0000    7  0.0000    7  0.0000    8  0.0000    8  0.0000
    9  0.0000    9  0.0000   10  0.0000   10  0.0000   11  0.0000   11  0.0000
   12  0.0000   12  0.0000
   2    1  0.0000    1  0.0000    1  0.0000    1  0.0000    3  0.0000    3  0.0000
    3  0.0000    3  0.0000    4  0.0000    4  0.0000    4  0.0000    4  0.0000
    5  0.0000    5  0.0000    6  0.0000    6  0.0000    7  0.0000    8  0.0000
    9  0.0000    9  0.0000   10  0.0000   10  0.0000   11  0.0000   11  0.0000
   12  0.0000   12  0.0000
   3    1  0.0000    1  0.0000    1  0.0000    1  0.0000    2  0.0000    2  0.0000
    2  0.0000    2  0.0000    4  0.0000    4  0.0000    4  0.0000    4  0.0000
    5  0.0000    5  0.0000    6  0.0000    6  0.0000    7  0.0000    7  0.0000
    8  0.0000    8  0.0000    9  0.0000   10  0.0000   11  0.0000   11  0.0000
   12  0.0000   12  0.0000
   4    1  0.0000    1  0.0000    1  0.0000    1  0.0000    2  0.0000    2  0.0000
    2  0.0000    2  0.0000    3  0.0000    3  0.0000    3  0.0000    3  0.0000
    5  0.0000    5  0.0000    6  0.0000    6  0.0000    7  0.0000    7  0.0000
    8  0.0000    8  0.0000    9  0.0000    9  0.0000   10  0.0000   10  0.0000
   11  0.0000   12  0.0000
   5    1  0.0000    2  0.0000    2  0.0000    3  0.0000    3  0.0000    4  0.0000
    4  0.0000    6  0.0000    7  0.0000    7  0.0000    8  0.0000    8  0.0000
    9  0.0000    9  0.0000   10  0.0000   10  0.0000   11  0.0000   11  0.0000
   12  0.0000   12  0.0000
   6    1  0.0000    2  0.0000    2  0.0000    3  0.0000    3  0.0000    4  0.0000
    4  0.0000    5  0.0000    7  0.0000    7  0.0000    8  0.0000    8  0.0000
    9  0.0000    9  0.0000   10  0.0000   10  0.0000   11  0.0000   11  0.0000
   12  0.0000   12  0.0000
   7    1  0.0000    1  0.0000    2  0.0000    3  0.0000    3  0.0000    4  0.0000
    4  0.0000    5  0.0000    5  0.0000    6  0.0000    6  0.0000    8  0.0000
    9  0.0000    9  0.0000   10  0.0000   10  0.0000   11  0.0000   11  0.0000
   12  0.0000   12  0.0000
   8    1  0.0000    1  0.0000    2  0.0000    3  0.0000    3  0.0000    4  0.0000
    4  0.0000    5  0.0000    5  0.0000    6  0.0000    6  0.0000    7  0.0000
    9  0.0000    9  0.0000   10  0.0000   10  0.0000   11  0.0000   11  0.0000
   12  0.0000   12  0.0000
   9    1  0.0000    1  0.0000    2  0.0000    2  0.0000    3  0.0000    4  0.0000
    4  0.0000    5  0.0000    5  0.0000    6  0.0000    6  0.0000    7  0.0000
    7  0.0000    8  0.0000    8  0.0000   10  0.0000   11  0.0000   11  0.0000
   12  0.0000   12  0.0000
  10    1  0.0000    1  0.0000    2  0.0000    2  0.0000    3  0.0000    4  0.0000
    4  0.0000    5  0.0000    5  0.0000    6  0.0000    6  0.0000    7  0.0000
    7  0.0000    8  0.0000    8  0.0000    9  0.0000   11  0.0000   11  0.0000
   12  0.0000   12  0.0000
  11    1  0.0000    1  0.0000    2  0.0000    2  0.0000    3  0.0000    3  0.0000
    4  0.0000    5  0.0000    5  0.0000    6  0.0000    6  0.0000    7  0.0000
    7  0.0000    8  0.0000    8  0.0000    9  0.0000    9  0.0000   10  0.0000
   10  0.0000   12  0.0000
  12    1  0.0000    1  0.0000    2  0.0000    2  0.0000    3  0.0000    3  0.0000
    4  0.0000    5  0.0000    5  0.0000    6  0.0000    6  0.0000    7  0.0000
    7  0.0000    8  0.0000    8  0.0000    9  0.0000    9  0.0000   10  0.0000
   10  0.0000   11  0.0000

  ReaxFF: Bond Order pi-pi prime: 

   1    2  0.0000    2  0.0000    2  0.0000    2  0.0000    3  0.0000    3  0.0000
    3  0.0000    3  0.0000    4  0.0000    4  0.0000    4  0.0000    4  0.0000
    5  0.0000    6  0.0000    7  0.0000    7  0.0000    8  0.0000    8  0.0000
    9  0.0000    9  0.0000   10  0.0000   10  0.0000   11  0.0000   11  0.0000
   12  0.0000   12  0.0000
   2    1  0.0000    1  0.0000    1  0.0000    1  0.0000    3  0.0000    3  0.0000
    3  0.0000    3  0.0000    4  0.0000    4  0.0000    4  0.0000    4  0.0000
    5  0.0000    5  0.0000    6  0.0000    6  0.0000    7  0.0000    8  0.0000
    9  0.0000    9  0.0000   10  0.0000   10  0.0000   11  0.0000   11  0.0000
   12  0.0000   12  0.0000
   3    1  0.0000    1  0.0000    1  0.0000    1  0.0000    2  0.0000    2  0.0000
    2  0.0000    2  0.0000    4  0.0000    4  0.0000    4  0.0000    4  0.0000
    5  0.0000    5  0.0000    6  0.0000    6  0.0000    7  0.0000    7  0.0000
    8  0.0000    8  0.0000    9  0.0000   10  0.0000   11  0.0000   11  0.0000
   12  0.0000   12  0.0000
   4    1  0.0000    1  0.0000    1  0.0000    1  0.0000    2  0.0000    2  0.0000
    2  0.0000    2  0.0000    3  0.0000    3  0.0000    3  0.0000    3  0.0000
    5  0.0000    5  0.0000    6  0.0000    6  0.0000    7  0.0000    7  0.0000
    8  0.0000    8  0.0000    9  0.0000    9  0.0000   10  0.0000   10  0.0000
   11  0.0000   12  0.0000
   5    1  0.0000    2  0.0000    2  0.0000    3  0.0000    3  0.0000    4  0.0000
    4  0.0000    6  0.0000    7  0.0000    7  0.0000    8  0.0000    8  0.0000
    9  0.0000    9  0.0000   10  0.0000   10  0.0000   11  0.0000   11  0.0000
   12  0.0000   12  0.0000
   6    1  0.0000    2  0.0000    2  0.0000    3  0.0000    3  0.0000    4  0.0000
    4  0.0000    5  0.0000    7  0.0000    7  0.0000    8  0.0000    8  0.0000
    9  0.0000    9  0.0000   10  0.0000   10  0.0000   11  0.0000   11  0.0000
   12  0.0000   12  0.0000
   7    1  0.0000    1  0.0000    2  0.0000    3  0.0000    3  0.0000    4  0.0000
    4  0.0000    5  0.0000    5  0.0000    6  0.0000    6  0.0000    8  0.0000
    9  0.0000    9  0.0000   10  0.0000   10  0.0000   11  0.0000   11  0.0000
   12  0.0000   12  0.0000
   8    1  0.0000    1  0.0000    2  0.0000    3  0.0000    3  0.0000    4  0.0000
    4  0.0000    5  0.0000    5  0.0000    6  0.0000    6  0.0000    7  0.0000
    9  0.0000    9  0.0000   10  0.0000   10  0.0000   11  0.0000   11  0.0000
   12  0.0000   12  0.0000
   9    1  0.0000    1  0.0000    2  0.0000    2  0.0000    3  0.0000    4  0.0000
    4  0.0000    5  0.0000    5  0.0000    6  0.0000    6  0.0000    7  0.0000
    7  0.0000    8  0.0000    8  0.0000   10  0.0000   11  0.0000   11  0.0000
   12  0.0000   12  0.0000
  10    1  0.0000    1  0.0000    2  0.0000    2  0.0000    3  0.0000    4  0.0000
    4  0.0000    5  0.0000    5  0.0000    6  0.0000    6  0.0000    7  0.0000
    7  0.0000    8  0.0000    8  0.0000    9  0.0000   11  0.0000   11  0.0000
   12  0.0000   12  0.0000
  11    1  0.0000    1  0.0000    2  0.0000    2  0.0000    3  0.0000    3  0.0000
    4  0.0000    5  0.0000    5  0.0000    6  0.0000    6  0.0000    7  0.0000
    7  0.0000    8  0.0000    8  0.0000    9  0.0000    9  0.0000   10  0.0000
   10  0.0000   12  0.0000
  12    1  0.0000    1  0.0000    2  0.0000    2  0.0000    3  0.0000    3  0.0000
    4  0.0000    5  0.0000    5  0.0000    6  0.0000    6  0.0000    7  0.0000
    7  0.0000    8  0.0000    8  0.0000    9  0.0000    9  0.0000   10  0.0000
   10  0.0000   11  0.0000



  ReaxFF: Delta and Bond Order: 

   1  2.764770    2  0.0024    2  0.0024    2  0.0024    2  0.0024    3  0.0024    3  0.0024
    3  0.0024    3  0.0024    4  0.0024    4  0.0024    4  0.0024    4  0.0024
    5  0.2404    6  0.2404    7  0.0108    7  0.8651    8  0.8651    8  0.0108
    9  0.0108    9  0.8651   10  0.8651   10  0.0108   11  0.0108   11  0.8651
   12  0.8651   12  0.0108
   2  2.764770    1  0.0024    1  0.0024    1  0.0024    1  0.0024    3  0.0024    3  0.0024
    3  0.0024    3  0.0024    4  0.0024    4  0.0024    4  0.0024    4  0.0024
    5  0.8651    5  0.0108    6  0.0108    6  0.8651    7  0.2404    8  0.2404
    9  0.8651    9  0.0108   10  0.0108   10  0.8651   11  0.0108   11  0.8651
   12  0.8651   12  0.0108
   3  2.764770    1  0.0024    1  0.0024    1  0.0024    1  0.0024    2  0.0024    2  0.0024
    2  0.0024    2  0.0024    4  0.0024    4  0.0024    4  0.0024    4  0.0024
    5  0.8651    5  0.0108    6  0.0108    6  0.8651    7  0.0108    7  0.8651
    8  0.8651    8  0.0108    9  0.2404   10  0.2404   11  0.8651   11  0.0108
   12  0.0108   12  0.8651
   4  2.764770    1  0.0024    1  0.0024    1  0.0024    1  0.0024    2  0.0024    2  0.0024
    2  0.0024    2  0.0024    3  0.0024    3  0.0024    3  0.0024    3  0.0024
    5  0.8651    5  0.0108    6  0.0108    6  0.8651    7  0.8651    7  0.0108
    8  0.0108    8  0.8651    9  0.0108    9  0.8651   10  0.8651   10  0.0108
   11  0.2404   12  0.2404
   5  1.466869    1  0.2404    2  0.8651    2  0.0108    3  0.8651    3  0.0108    4  0.8651
    4  0.0108    6  0.0426    7  0.0048    7  0.0048    8  0.0879    8  0.0879
    9  0.0048    9  0.0048   10  0.0879   10  0.0879   11  0.0048   11  0.0048
   12  0.0879   12  0.0879
   6  1.466869    1  0.2404    2  0.0108    2  0.8651    3  0.0108    3  0.8651    4  0.0108
    4  0.8651    5  0.0426    7  0.0879    7  0.0879    8  0.0048    8  0.0048
    9  0.0879    9  0.0879   10  0.0048   10  0.0048   11  0.0879   11  0.0879
   12  0.0048   12  0.0048
   7  1.466869    1  0.0108    1  0.8651    2  0.2404    3  0.0108    3  0.8651    4  0.8651
    4  0.0108    5  0.0048    5  0.0048    6  0.0879    6  0.0879    8  0.0426
    9  0.0048    9  0.0048   10  0.0879   10  0.0879   11  0.0048   11  0.0048
   12  0.0879   12  0.0879
   8  1.466869    1  0.8651    1  0.0108    2  0.2404    3  0.8651    3  0.0108    4  0.0108
    4  0.8651    5  0.0879    5  0.0879    6  0.0048    6  0.0048    7  0.0426
    9  0.0879    9  0.0879   10  0.0048   10  0.0048   11  0.0879   11  0.0879
   12  0.0048   12  0.0048
   9  1.466869    1  0.0108    1  0.8651    2  0.8651    2  0.0108    3  0.2404    4  0.0108
    4  0.8651    5  0.0048    5  0.0048    6  0.0879    6  0.0879    7  0.0048
    7  0.0048    8  0.0879    8  0.0879   10  0.0426   11  0.0048   11  0.0048
   12  0.0879   12  0.0879
  10  1.466869    1  0.8651    1  0.0108    2  0.0108    2  0.8651    3  0.2404    4  0.8651
    4  0.0108    5  0.0879    5  0.0879    6  0.0048    6  0.0048    7  0.0879
    7  0.0879    8  0.0048    8  0.0048    9  0.0426   11  0.0879   11  0.0879
   12  0.0048   12  0.0048
  11  1.466869    1  0.0108    1  0.8651    2  0.0108    2  0.8651    3  0.8651    3  0.0108
    4  0.2404    5  0.0048    5  0.0048    6  0.0879    6  0.0879    7  0.0048
    7  0.0048    8  0.0879    8  0.0879    9  0.0048    9  0.0048   10  0.0879
   10  0.0879   12  0.0426
  12  1.466869    1  0.8651    1  0.0108    2  0.8651    2  0.0108    3  0.0108    3  0.8651
    4  0.2404    5  0.0879    5  0.0879    6  0.0048    6  0.0048    7  0.0879
    7  0.0879    8  0.0048    8  0.0048    9  0.0879    9  0.0879   10  0.0048
   10  0.0048   11  0.0426

  ReaxFF: Delta lone pair: 

   1  1.000000
   2  1.000000
   3  1.000000
   4  1.000000
   5  0.999998
   6  0.999998
   7  0.999998
   8  0.999998
   9  0.999998
  10  0.999998
  11  0.999998
  12  0.999998


  ReaxFF : Energy contributions: 

  E(bond)     =     -78.23660866 eV =    -1804.1674905 kcal
  E(bpen)     =       0.00000000 eV =        0.0000000 kcal
  E(lonepair) =       1.21399347 eV =       27.9951750 kcal
  E(over)     =      12.78993990 eV =      294.9411301 kcal
  E(under)    =       0.00000000 eV =        0.0000000 kcal
  E(val)      =      16.66895737 eV =      384.3928245 kcal
  E(pen)      =       0.00000000 eV =        0.0000000 kcal
  E(coa)      =       0.00000000 eV =        0.0000000 kcal
  E(tors)     =       2.35487488 eV =       54.3043568 kcal
  E(conj)     =       0.00000000 eV =        0.0000000 kcal
  E(hb)       =       0.00000000 eV =        0.0000000 kcal
  E(vdw)      =       6.41369507 eV =      147.9023739 kcal
  E(coulomb)  =      -3.34422152 eV =      -77.1190860 kcal
  E(self)     =      -0.10608718 eV =       -2.4464129 kcal

  Components of energy : 

--------------------------------------------------------------------------------
  Interatomic potentials     =           0.00000000 eV    
  ReaxFF force field         =         -42.24545667 eV    
  Monopole - monopole (real) =           0.00000000 eV    
  Monopole - monopole (recip)=           0.00000000 eV    
  Monopole - monopole (total)=           0.00000000 eV    
--------------------------------------------------------------------------------
  Total lattice energy       =         -42.24545667 eV    
--------------------------------------------------------------------------------
  Total lattice energy       =           -4076.0408 kJ/(mole unit cells)
--------------------------------------------------------------------------------


  Number of variables =        7

  Maximum number of calculations  =           100
  Maximum Hessian update interval =            10
  Maximum step size               =   1.000000000
  Maximum parameter tolerance     =   0.000010000
  Maximum function  tolerance     =   0.000010000
  Maximum gradient  tolerance     =   0.001000000
  Maximum gradient  component     =   0.010000000

  Symmetry constrained optimisation

  Cell parameters to be optimised using strains

  Newton-Raphson optimiser to be used

  BFGS hessian update to be used

  Start of bulk optimisation :


  ReaxFF: Delta and Bond Order prime: 

   1  2.764770    2  0.0024    2  0.0024    2  0.0024    2  0.0024    3  0.0024    3  0.0024
    3  0.0024    3  0.0024    4  0.0024    4  0.0024    4  0.0024    4  0.0024
    5  0.2404    6  0.2404    7  0.0108    7  0.8651    8  0.8651    8  0.0108
    9  0.0108    9  0.8651   10  0.8651   10  0.0108   11  0.0108   11  0.8651
   12  0.8651   12  0.0108
   2  2.764770    1  0.0024    1  0.0024    1  0.0024    1  0.0024    3  0.0024    3  0.0024
    3  0.0024    3  0.0024    4  0.0024    4  0.0024    4  0.0024    4  0.0024
    5  0.8651    5  0.0108    6  0.0108    6  0.8651    7  0.2404    8  0.2404
    9  0.8651    9  0.0108   10  0.0108   10  0.8651   11  0.0108   11  0.8651
   12  0.8651   12  0.0108
   3  2.764770    1  0.0024    1  0.0024    1  0.0024    1  0.0024    2  0.0024    2  0.0024
    2  0.0024    2  0.0024    4  0.0024    4  0.0024    4  0.0024    4  0.0024
    5  0.8651    5  0.0108    6  0.0108    6  0.8651    7  0.0108    7  0.8651
    8  0.8651    8  0.0108    9  0.2404   10  0.2404   11  0.8651   11  0.0108
   12  0.0108   12  0.8651
   4  2.764770    1  0.0024    1  0.0024    1  0.0024    1  0.0024    2  0.0024    2  0.0024
    2  0.0024    2  0.0024    3  0.0024    3  0.0024    3  0.0024    3  0.0024
    5  0.8651    5  0.0108    6  0.0108    6  0.8651    7  0.8651    7  0.0108
    8  0.0108    8  0.8651    9  0.0108    9  0.8651   10  0.8651   10  0.0108
   11  0.2404   12  0.2404
   5  2.093572    1  0.2404    2  0.8651    2  0.0108    3  0.8651    3  0.0108    4  0.8651
    4  0.0108    6  0.0873    7  0.0097    7  0.0097    8  0.1800    8  0.1800
    9  0.0097    9  0.0097   10  0.1800   10  0.1800   11  0.0097   11  0.0097
   12  0.1800   12  0.1800
   6  2.093572    1  0.2404    2  0.0108    2  0.8651    3  0.0108    3  0.8651    4  0.0108
    4  0.8651    5  0.0873    7  0.1800    7  0.1800    8  0.0097    8  0.0097
    9  0.1800    9  0.1800   10  0.0097   10  0.0097   11  0.1800   11  0.1800
   12  0.0097   12  0.0097
   7  2.093572    1  0.0108    1  0.8651    2  0.2404    3  0.0108    3  0.8651    4  0.8651
    4  0.0108    5  0.0097    5  0.0097    6  0.1800    6  0.1800    8  0.0873
    9  0.0097    9  0.0097   10  0.1800   10  0.1800   11  0.0097   11  0.0097
   12  0.1800   12  0.1800
   8  2.093572    1  0.8651    1  0.0108    2  0.2404    3  0.8651    3  0.0108    4  0.0108
    4  0.8651    5  0.1800    5  0.1800    6  0.0097    6  0.0097    7  0.0873
    9  0.1800    9  0.1800   10  0.0097   10  0.0097   11  0.1800   11  0.1800
   12  0.0097   12  0.0097
   9  2.093572    1  0.0108    1  0.8651    2  0.8651    2  0.0108    3  0.2404    4  0.0108
    4  0.8651    5  0.0097    5  0.0097    6  0.1800    6  0.1800    7  0.0097
    7  0.0097    8  0.1800    8  0.1800   10  0.0873   11  0.0097   11  0.0097
   12  0.1800   12  0.1800
  10  2.093572    1  0.8651    1  0.0108    2  0.0108    2  0.8651    3  0.2404    4  0.8651
    4  0.0108    5  0.1800    5  0.1800    6  0.0097    6  0.0097    7  0.1800
    7  0.1800    8  0.0097    8  0.0097    9  0.0873   11  0.1800   11  0.1800
   12  0.0097   12  0.0097
  11  2.093572    1  0.0108    1  0.8651    2  0.0108    2  0.8651    3  0.8651    3  0.0108
    4  0.2404    5  0.0097    5  0.0097    6  0.1800    6  0.1800    7  0.0097
    7  0.0097    8  0.1800    8  0.1800    9  0.0097    9  0.0097   10  0.1800
   10  0.1800   12  0.0873
  12  2.093572    1  0.8651    1  0.0108    2  0.8651    2  0.0108    3  0.0108    3  0.8651
    4  0.2404    5  0.1800    5  0.1800    6  0.0097    6  0.0097    7  0.1800
    7  0.1800    8  0.0097    8  0.0097    9  0.1800    9  0.1800   10  0.0097
   10  0.0097   11  0.0873

  ReaxFF: Bond Order sigma prime: 

   1    2  0.0024    2  0.0024    2  0.0024    2  0.0024    3  0.0024    3  0.0024
    3  0.0024    3  0.0024    4  0.0024    4  0.0024    4  0.0024    4  0.0024
    5  0.2404    6  0.2404    7  0.0108    7  0.8651    8  0.8651    8  0.0108
    9  0.0108    9  0.8651   10  0.8651   10  0.0108   11  0.0108   11  0.8651
   12  0.8651   12  0.0108
   2    1  0.0024    1  0.0024    1  0.0024    1  0.0024    3  0.0024    3  0.0024
    3  0.0024    3  0.0024    4  0.0024    4  0.0024    4  0.0024    4  0.0024
    5  0.8651    5  0.0108    6  0.0108    6  0.8651    7  0.2404    8  0.2404
    9  0.8651    9  0.0108   10  0.0108   10  0.8651   11  0.0108   11  0.8651
   12  0.8651   12  0.0108
   3    1  0.0024    1  0.0024    1  0.0024    1  0.0024    2  0.0024    2  0.0024
    2  0.0024    2  0.0024    4  0.0024    4  0.0024    4  0.0024    4  0.0024
    5  0.8651    5  0.0108    6  0.0108    6  0.8651    7  0.0108    7  0.8651
    8  0.8651    8  0.0108    9  0.2404   10  0.2404   11  0.8651   11  0.0108
   12  0.0108   12  0.8651
   4    1  0.0024    1  0.0024    1  0.0024    1  0.0024    2  0.0024    2  0.0024
    2  0.0024    2  0.0024    3  0.0024    3  0.0024    3  0.0024    3  0.0024
    5  0.8651    5  0.0108    6  0.0108    6  0.8651    7  0.8651    7  0.0108
    8  0.0108    8  0.8651    9  0.0108    9  0.8651   10  0.8651   10  0.0108
   11  0.2404   12  0.2404
   5    1  0.2404    2  0.8651    2  0.0108    3  0.8651    3  0.0108    4  0.8651
    4  0.0108    6  0.0873    7  0.0097    7  0.0097    8  0.1800    8  0.1800
    9  0.0097    9  0.0097   10  0.1800   10  0.1800   11  0.0097   11  0.0097
   12  0.1800   12  0.1800
   6    1  0.2404    2  0.0108    2  0.8651    3  0.0108    3  0.8651    4  0.0108
    4  0.8651    5  0.0873    7  0.1800    7  0.1800    8  0.0097    8  0.0097
    9  0.1800    9  0.1800   10  0.0097   10  0.0097   11  0.1800   11  0.1800
   12  0.0097   12  0.0097
   7    1  0.0108    1  0.8651    2  0.2404    3  0.0108    3  0.8651    4  0.8651
    4  0.0108    5  0.0097    5  0.0097    6  0.1800    6  0.1800    8  0.0873
    9  0.0097    9  0.0097   10  0.1800   10  0.1800   11  0.0097   11  0.0097
   12  0.1800   12  0.1800
   8    1  0.8651    1  0.0108    2  0.2404    3  0.8651    3  0.0108    4  0.0108
    4  0.8651    5  0.1800    5  0.1800    6  0.0097    6  0.0097    7  0.0873
    9  0.1800    9  0.1800   10  0.0097   10  0.0097   11  0.1800   11  0.1800
   12  0.0097   12  0.0097
   9    1  0.0108    1  0.8651    2  0.8651    2  0.0108    3  0.2404    4  0.0108
    4  0.8651    5  0.0097    5  0.0097    6  0.1800    6  0.1800    7  0.0097
    7  0.0097    8  0.1800    8  0.1800   10  0.0873   11  0.0097   11  0.0097
   12  0.1800   12  0.1800
  10    1  0.8651    1  0.0108    2  0.0108    2  0.8651    3  0.2404    4  0.8651
    4  0.0108    5  0.1800    5  0.1800    6  0.0097    6  0.0097    7  0.1800
    7  0.1800    8  0.0097    8  0.0097    9  0.0873   11  0.1800   11  0.1800
   12  0.0097   12  0.0097
  11    1  0.0108    1  0.8651    2  0.0108    2  0.8651    3  0.8651    3  0.0108
    4  0.2404    5  0.0097    5  0.0097    6  0.1800    6  0.1800    7  0.0097
    7  0.0097    8  0.1800    8  0.1800    9  0.0097    9  0.0097   10  0.1800
   10  0.1800   12  0.0873
  12    1  0.8651    1  0.0108    2  0.8651    2  0.0108    3  0.0108    3  0.8651
    4  0.2404    5  0.1800    5  0.1800    6  0.0097    6  0.0097    7  0.1800
    7  0.1800    8  0.0097    8  0.0097    9  0.1800    9  0.1800   10  0.0097
   10  0.0097   11  0.0873

  ReaxFF: Bond Order pi prime: 

   1    2  0.0000    2  0.0000    2  0.0000    2  0.0000    3  0.0000    3  0.0000
    3  0.0000    3  0.0000    4  0.0000    4  0.0000    4  0.0000    4  0.0000
    5  0.0000    6  0.0000    7  0.0000    7  0.0000    8  0.0000    8  0.0000
    9  0.0000    9  0.0000   10  0.0000   10  0.0000   11  0.0000   11  0.0000
   12  0.0000   12  0.0000
   2    1  0.0000    1  0.0000    1  0.0000    1  0.0000    3  0.0000    3  0.0000
    3  0.0000    3  0.0000    4  0.0000    4  0.0000    4  0.0000    4  0.0000
    5  0.0000    5  0.0000    6  0.0000    6  0.0000    7  0.0000    8  0.0000
    9  0.0000    9  0.0000   10  0.0000   10  0.0000   11  0.0000   11  0.0000
   12  0.0000   12  0.0000
   3    1  0.0000    1  0.0000    1  0.0000    1  0.0000    2  0.0000    2  0.0000
    2  0.0000    2  0.0000    4  0.0000    4  0.0000    4  0.0000    4  0.0000
    5  0.0000    5  0.0000    6  0.0000    6  0.0000    7  0.0000    7  0.0000
    8  0.0000    8  0.0000    9  0.0000   10  0.0000   11  0.0000   11  0.0000
   12  0.0000   12  0.0000
   4    1  0.0000    1  0.0000    1  0.0000    1  0.0000    2  0.0000    2  0.0000
    2  0.0000    2  0.0000    3  0.0000    3  0.0000    3  0.0000    3  0.0000
    5  0.0000    5  0.0000    6  0.0000    6  0.0000    7  0.0000    7  0.0000
    8  0.0000    8  0.0000    9  0.0000    9  0.0000   10  0.0000   10  0.0000
   11  0.0000   12  0.0000
   5    1  0.0000    2  0.0000    2  0.0000    3  0.0000    3  0.0000    4  0.0000
    4  0.0000    6  0.0000    7  0.0000    7  0.0000    8  0.0000    8  0.0000
    9  0.0000    9  0.0000   10  0.0000   10  0.0000   11  0.0000   11  0.0000
   12  0.0000   12  0.0000
   6    1  0.0000    2  0.0000    2  0.0000    3  0.0000    3  0.0000    4  0.0000
    4  0.0000    5  0.0000    7  0.0000    7  0.0000    8  0.0000    8  0.0000
    9  0.0000    9  0.0000   10  0.0000   10  0.0000   11  0.0000   11  0.0000
   12  0.0000   12  0.0000
   7    1  0.0000    1  0.0000    2  0.0000    3  0.0000    3  0.0000    4  0.0000
    4  0.0000    5  0.0000    5  0.0000    6  0.0000    6  0.0000    8  0.0000
    9  0.0000    9  0.0000   10  0.0000   10  0.0000   11  0.0000   11  0.0000
   12  0.0000   12  0.0000
   8    1  0.0000    1  0.0000    2  0.0000    3  0.0000    3  0.0000    4  0.0000
    4  0.0000    5  0.0000    5  0.0000    6  0.0000    6  0.0000    7  0.0000
    9  0.0000    9  0.0000   10  0.0000   10  0.0000   11  0.0000   11  0.0000
   12  0.0000   12  0.0000
   9    1  0.0000    1  0.0000    2  0.0000    2  0.0000    3  0.0000    4  0.0000
    4  0.0000    5  0.0000    5  0.0000    6  0.0000    6  0.0000    7  0.0000
    7  0.0000    8  0.0000    8  0.0000   10  0.0000   11  0.0000   11  0.0000
   12  0.0000   12  0.0000
  10    1  0.0000    1  0.0000    2  0.0000    2  0.0000    3  0.0000    4  0.0000
    4  0.0000    5  0.0000    5  0.0000    6  0.0000    6  0.0000    7  0.0000
    7  0.0000    8  0.0000    8  0.0000    9  0.0000   11  0.0000   11  0.0000
   12  0.0000   12  0.0000
  11    1  0.0000    1  0.0000    2  0.0000    2  0.0000    3  0.0000    3  0.0000
    4  0.0000    5  0.0000    5  0.0000    6  0.0000    6  0.0000    7  0.0000
    7  0.0000    8  0.0000    8  0.0000    9  0.0000    9  0.0000   10  0.0000
   10  0.0000   12  0.0000
  12    1  0.0000    1  0.0000    2  0.0000    2  0.0000    3  0.0000    3  0.0000
    4  0.0000    5  0.0000    5  0.0000    6  0.0000    6  0.0000    7  0.0000
    7  0.0000    8  0.0000    8  0.0000    9  0.0000    9  0.0000   10  0.0000
   10  0.0000   11  0.0000

  ReaxFF: Bond Order pi-pi prime: 

   1    2  0.0000    2  0.0000    2  0.0000    2  0.0000    3  0.0000    3  0.0000
    3  0.0000    3  0.0000    4  0.0000    4  0.0000    4  0.0000    4  0.0000
    5  0.0000    6  0.0000    7  0.0000    7  0.0000    8  0.0000    8  0.0000
    9  0.0000    9  0.0000   10  0.0000   10  0.0000   11  0.0000   11  0.0000
   12  0.0000   12  0.0000
   2    1  0.0000    1  0.0000    1  0.0000    1  0.0000    3  0.0000    3  0.0000
    3  0.0000    3  0.0000    4  0.0000    4  0.0000    4  0.0000    4  0.0000
    5  0.0000    5  0.0000    6  0.0000    6  0.0000    7  0.0000    8  0.0000
    9  0.0000    9  0.0000   10  0.0000   10  0.0000   11  0.0000   11  0.0000
   12  0.0000   12  0.0000
   3    1  0.0000    1  0.0000    1  0.0000    1  0.0000    2  0.0000    2  0.0000
    2  0.0000    2  0.0000    4  0.0000    4  0.0000    4  0.0000    4  0.0000
    5  0.0000    5  0.0000    6  0.0000    6  0.0000    7  0.0000    7  0.0000
    8  0.0000    8  0.0000    9  0.0000   10  0.0000   11  0.0000   11  0.0000
   12  0.0000   12  0.0000
   4    1  0.0000    1  0.0000    1  0.0000    1  0.0000    2  0.0000    2  0.0000
    2  0.0000    2  0.0000    3  0.0000    3  0.0000    3  0.0000    3  0.0000
    5  0.0000    5  0.0000    6  0.0000    6  0.0000    7  0.0000    7  0.0000
    8  0.0000    8  0.0000    9  0.0000    9  0.0000   10  0.0000   10  0.0000
   11  0.0000   12  0.0000
   5    1  0.0000    2  0.0000    2  0.0000    3  0.0000    3  0.0000    4  0.0000
    4  0.0000    6  0.0000    7  0.0000    7  0.0000    8  0.0000    8  0.0000
    9  0.0000    9  0.0000   10  0.0000   10  0.0000   11  0.0000   11  0.0000
   12  0.0000   12  0.0000
   6    1  0.0000    2  0.0000    2  0.0000    3  0.0000    3  0.0000    4  0.0000
    4  0.0000    5  0.0000    7  0.0000    7  0.0000    8  0.0000    8  0.0000
    9  0.0000    9  0.0000   10  0.0000   10  0.0000   11  0.0000   11  0.0000
   12  0.0000   12  0.0000
   7    1  0.0000    1  0.0000    2  0.0000    3  0.0000    3  0.0000    4  0.0000
    4  0.0000    5  0.0000    5  0.0000    6  0.0000    6  0.0000    8  0.0000
    9  0.0000    9  0.0000   10  0.0000   10  0.0000   11  0.0000   11  0.0000
   12  0.0000   12  0.0000
   8    1  0.0000    1  0.0000    2  0.0000    3  0.0000    3  0.0000    4  0.0000
    4  0.0000    5  0.0000    5  0.0000    6  0.0000    6  0.0000    7  0.0000
    9  0.0000    9  0.0000   10  0.0000   10  0.0000   11  0.0000   11  0.0000
   12  0.0000   12  0.0000
   9    1  0.0000    1  0.0000    2  0.0000    2  0.0000    3  0.0000    4  0.0000
    4  0.0000    5  0.0000    5  0.0000    6  0.0000    6  0.0000    7  0.0000
    7  0.0000    8  0.0000    8  0.0000   10  0.0000   11  0.0000   11  0.0000
   12  0.0000   12  0.0000
  10    1  0.0000    1  0.0000    2  0.0000    2  0.0000    3  0.0000    4  0.0000
    4  0.0000    5  0.0000    5  0.0000    6  0.0000    6  0.0000    7  0.0000
    7  0.0000    8  0.0000    8  0.0000    9  0.0000   11  0.0000   11  0.0000
   12  0.0000   12  0.0000
  11    1  0.0000    1  0.0000    2  0.0000    2  0.0000    3  0.0000    3  0.0000
    4  0.0000    5  0.0000    5  0.0000    6  0.0000    6  0.0000    7  0.0000
    7  0.0000    8  0.0000    8  0.0000    9  0.0000    9  0.0000   10  0.0000
   10  0.0000   12  0.0000
  12    1  0.0000    1  0.0000    2  0.0000    2  0.0000    3  0.0000    3  0.0000
    4  0.0000    5  0.0000    5  0.0000    6  0.0000    6  0.0000    7  0.0000
    7  0.0000    8  0.0000    8  0.0000    9  0.0000    9  0.0000   10  0.0000
   10  0.0000   11  0.0000



  ReaxFF: Delta and Bond Order: 

   1  2.764770    2  0.0024    2  0.0024    2  0.0024    2  0.0024    3  0.0024    3  0.0024
    3  0.0024    3  0.0024    4  0.0024    4  0.0024    4  0.0024    4  0.0024
    5  0.2404    6  0.2404    7  0.0108    7  0.8651    8  0.8651    8  0.0108
    9  0.0108    9  0.8651   10  0.8651   10  0.0108   11  0.0108   11  0.8651
   12  0.8651   12  0.0108
   2  2.764770    1  0.0024    1  0.0024    1  0.0024    1  0.0024    3  0.0024    3  0.0024
    3  0.0024    3  0.0024    4  0.0024    4  0.0024    4  0.0024    4  0.0024
    5  0.8651    5  0.0108    6  0.0108    6  0.8651    7  0.2404    8  0.2404
    9  0.8651    9  0.0108   10  0.0108   10  0.8651   11  0.0108   11  0.8651
   12  0.8651   12  0.0108
   3  2.764770    1  0.0024    1  0.0024    1  0.0024    1  0.0024    2  0.0024    2  0.0024
    2  0.0024    2  0.0024    4  0.0024    4  0.0024    4  0.0024    4  0.0024
    5  0.8651    5  0.0108    6  0.0108    6  0.8651    7  0.0108    7  0.8651
    8  0.8651    8  0.0108    9  0.2404   10  0.2404   11  0.8651   11  0.0108
   12  0.0108   12  0.8651
   4  2.764770    1  0.0024    1  0.0024    1  0.0024    1  0.0024    2  0.0024    2  0.0024
    2  0.0024    2  0.0024    3  0.0024    3  0.0024    3  0.0024    3  0.0024
    5  0.8651    5  0.0108    6  0.0108    6  0.8651    7  0.8651    7  0.0108
    8  0.0108    8  0.8651    9  0.0108    9  0.8651   10  0.8651   10  0.0108
   11  0.2404   12  0.2404
   5  1.466869    1  0.2404    2  0.8651    2  0.0108    3  0.8651    3  0.0108    4  0.8651
    4  0.0108    6  0.0426    7  0.0048    7  0.0048    8  0.0879    8  0.0879
    9  0.0048    9  0.0048   10  0.0879   10  0.0879   11  0.0048   11  0.0048
   12  0.0879   12  0.0879
   6  1.466869    1  0.2404    2  0.0108    2  0.8651    3  0.0108    3  0.8651    4  0.0108
    4  0.8651    5  0.0426    7  0.0879    7  0.0879    8  0.0048    8  0.0048
    9  0.0879    9  0.0879   10  0.0048   10  0.0048   11  0.0879   11  0.0879
   12  0.0048   12  0.0048
   7  1.466869    1  0.0108    1  0.8651    2  0.2404    3  0.0108    3  0.8651    4  0.8651
    4  0.0108    5  0.0048    5  0.0048    6  0.0879    6  0.0879    8  0.0426
    9  0.0048    9  0.0048   10  0.0879   10  0.0879   11  0.0048   11  0.0048
   12  0.0879   12  0.0879
   8  1.466869    1  0.8651    1  0.0108    2  0.2404    3  0.8651    3  0.0108    4  0.0108
    4  0.8651    5  0.0879    5  0.0879    6  0.0048    6  0.0048    7  0.0426
    9  0.0879    9  0.0879   10  0.0048   10  0.0048   11  0.0879   11  0.0879
   12  0.0048   12  0.0048
   9  1.466869    1  0.0108    1  0.8651    2  0.8651    2  0.0108    3  0.2404    4  0.0108
    4  0.8651    5  0.0048    5  0.0048    6  0.0879    6  0.0879    7  0.0048
    7  0.0048    8  0.0879    8  0.0879   10  0.0426   11  0.0048   11  0.0048
   12  0.0879   12  0.0879
  10  1.466869    1  0.8651    1  0.0108    2  0.0108    2  0.8651    3  0.2404    4  0.8651
    4  0.0108    5  0.0879    5  0.0879    6  0.0048    6  0.0048    7  0.0879
    7  0.0879    8  0.0048    8  0.0048    9  0.0426   11  0.0879   11  0.0879
   12  0.0048   12  0.0048
  11  1.466869    1  0.0108    1  0.8651    2  0.0108    2  0.8651    3  0.8651    3  0.0108
    4  0.2404    5  0.0048    5  0.0048    6  0.0879    6  0.0879    7  0.0048
    7  0.0048    8  0.0879    8  0.0879    9  0.0048    9  0.0048   10  0.0879
   10  0.0879   12  0.0426
  12  1.466869    1  0.8651    1  0.0108    2  0.8651    2  0.0108    3  0.0108    3  0.8651
    4  0.2404    5  0.0879    5  0.0879    6  0.0048    6  0.0048    7  0.0879
    7  0.0879    8  0.0048    8  0.0048    9  0.0879    9  0.0879   10  0.0048
   10  0.0048   11  0.0426

  ReaxFF: Delta lone pair: 

   1  1.000000
   2  1.000000
   3  1.000000
   4  1.000000
   5  0.999998
   6  0.999998
   7  0.999998
   8  0.999998
   9  0.999998
  10  0.999998
  11  0.999998
  12  0.999998


  ReaxFF : Energy contributions: 

  E(bond)     =     -78.23660866 eV =    -1804.1674905 kcal
  E(bpen)     =       0.00000000 eV =        0.0000000 kcal
  E(lonepair) =       1.21399347 eV =       27.9951750 kcal
  E(over)     =      12.78993990 eV =      294.9411301 kcal
  E(under)    =       0.00000000 eV =        0.0000000 kcal
  E(val)      =      16.66895737 eV =      384.3928245 kcal
  E(pen)      =       0.00000000 eV =        0.0000000 kcal
  E(coa)      =       0.00000000 eV =        0.0000000 kcal
  E(tors)     =       2.35487488 eV =       54.3043568 kcal
  E(conj)     =       0.00000000 eV =        0.0000000 kcal
  E(hb)       =       0.00000000 eV =        0.0000000 kcal
  E(vdw)      =       6.41369507 eV =      147.9023739 kcal
  E(coulomb)  =      -3.34422152 eV =      -77.1190860 kcal
  E(self)     =      -0.10608718 eV =       -2.4464129 kcal
  Cycle:      0 Energy:       -42.245457  Gnorm:      4.872574  CPU:    0.030
  ** Cosine =   1.000000

  ReaxFF: Delta and Bond Order prime: 

   1  2.675551    2  0.0018    2  0.0018    2  0.0018    2  0.0018    3  0.0018    3  0.0018
    3  0.0018    3  0.0018    4  0.0018    4  0.0018    4  0.0018    4  0.0018
    5  0.2075    6  0.2075    7  0.0119    7  0.8612    8  0.8612    8  0.0119
    9  0.0119    9  0.8612   10  0.8612   10  0.0119   11  0.0119   11  0.8612
   12  0.8612   12  0.0119
   2  2.675551    1  0.0018    1  0.0018    1  0.0018    1  0.0018    3  0.0018    3  0.0018
    3  0.0018    3  0.0018    4  0.0018    4  0.0018    4  0.0018    4  0.0018
    5  0.8612    5  0.0119    6  0.0119    6  0.8612    7  0.2075    8  0.2075
    9  0.8612    9  0.0119   10  0.0119   10  0.8612   11  0.0119   11  0.8612
   12  0.8612   12  0.0119
   3  2.675551    1  0.0018    1  0.0018    1  0.0018    1  0.0018    2  0.0018    2  0.0018
    2  0.0018    2  0.0018    4  0.0018    4  0.0018    4  0.0018    4  0.0018
    5  0.8612    5  0.0119    6  0.0119    6  0.8612    7  0.0119    7  0.8612
    8  0.8612    8  0.0119    9  0.2075   10  0.2075   11  0.8612   11  0.0119
   12  0.0119   12  0.8612
   4  2.675551    1  0.0018    1  0.0018    1  0.0018    1  0.0018    2  0.0018    2  0.0018
    2  0.0018    2  0.0018    3  0.0018    3  0.0018    3  0.0018    3  0.0018
    5  0.8612    5  0.0119    6  0.0119    6  0.8612    7  0.8612    7  0.0119
    8  0.0119    8  0.8612    9  0.0119    9  0.8612   10  0.8612   10  0.0119
   11  0.2075   12  0.2075
   5  1.973671    1  0.2075    2  0.8612    2  0.0119    3  0.8612    3  0.0119    4  0.8612
    4  0.0119    6  0.1145    7  0.0092    7  0.0092    8  0.1628    8  0.1628
    9  0.0092    9  0.0092   10  0.1628   10  0.1628   11  0.0092   11  0.0092
   12  0.1628   12  0.1628
   6  1.973671    1  0.2075    2  0.0119    2  0.8612    3  0.0119    3  0.8612    4  0.0119
    4  0.8612    5  0.1145    7  0.1628    7  0.1628    8  0.0092    8  0.0092
    9  0.1628    9  0.1628   10  0.0092   10  0.0092   11  0.1628   11  0.1628
   12  0.0092   12  0.0092
   7  1.973671    1  0.0119    1  0.8612    2  0.2075    3  0.0119    3  0.8612    4  0.8612
    4  0.0119    5  0.0092    5  0.0092    6  0.1628    6  0.1628    8  0.1145
    9  0.0092    9  0.0092   10  0.1628   10  0.1628   11  0.0092   11  0.0092
   12  0.1628   12  0.1628
   8  1.973671    1  0.8612    1  0.0119    2  0.2075    3  0.8612    3  0.0119    4  0.0119
    4  0.8612    5  0.1628    5  0.1628    6  0.0092    6  0.0092    7  0.1145
    9  0.1628    9  0.1628   10  0.0092   10  0.0092   11  0.1628   11  0.1628
   12  0.0092   12  0.0092
   9  1.973671    1  0.0119    1  0.8612    2  0.8612    2  0.0119    3  0.2075    4  0.0119
    4  0.8612    5  0.0092    5  0.0092    6  0.1628    6  0.1628    7  0.0092
    7  0.0092    8  0.1628    8  0.1628   10  0.1145   11  0.0092   11  0.0092
   12  0.1628   12  0.1628
  10  1.973671    1  0.8612    1  0.0119    2  0.0119    2  0.8612    3  0.2075    4  0.8612
    4  0.0119    5  0.1628    5  0.1628    6  0.0092    6  0.0092    7  0.1628
    7  0.1628    8  0.0092    8  0.0092    9  0.1145   11  0.1628   11  0.1628
   12  0.0092   12  0.0092
  11  1.973671    1  0.0119    1  0.8612    2  0.0119    2  0.8612    3  0.8612    3  0.0119
    4  0.2075    5  0.0092    5  0.0092    6  0.1628    6  0.1628    7  0.0092
    7  0.0092    8  0.1628    8  0.1628    9  0.0092    9  0.0092   10  0.1628
   10  0.1628   12  0.1145
  12  1.973671    1  0.8612    1  0.0119    2  0.8612    2  0.0119    3  0.0119    3  0.8612
    4  0.2075    5  0.1628    5  0.1628    6  0.0092    6  0.0092    7  0.1628
    7  0.1628    8  0.0092    8  0.0092    9  0.1628    9  0.1628   10  0.0092
   10  0.0092   11  0.1145

  ReaxFF: Bond Order sigma prime: 

   1    2  0.0018    2  0.0018    2  0.0018    2  0.0018    3  0.0018    3  0.0018
    3  0.0018    3  0.0018    4  0.0018    4  0.0018    4  0.0018    4  0.0018
    5  0.2075    6  0.2075    7  0.0119    7  0.8612    8  0.8612    8  0.0119
    9  0.0119    9  0.8612   10  0.8612   10  0.0119   11  0.0119   11  0.8612
   12  0.8612   12  0.0119
   2    1  0.0018    1  0.0018    1  0.0018    1  0.0018    3  0.0018    3  0.0018
    3  0.0018    3  0.0018    4  0.0018    4  0.0018    4  0.0018    4  0.0018
    5  0.8612    5  0.0119    6  0.0119    6  0.8612    7  0.2075    8  0.2075
    9  0.8612    9  0.0119   10  0.0119   10  0.8612   11  0.0119   11  0.8612
   12  0.8612   12  0.0119
   3    1  0.0018    1  0.0018    1  0.0018    1  0.0018    2  0.0018    2  0.0018
    2  0.0018    2  0.0018    4  0.0018    4  0.0018    4  0.0018    4  0.0018
    5  0.8612    5  0.0119    6  0.0119    6  0.8612    7  0.0119    7  0.8612
    8  0.8612    8  0.0119    9  0.2075   10  0.2075   11  0.8612   11  0.0119
   12  0.0119   12  0.8612
   4    1  0.0018    1  0.0018    1  0.0018    1  0.0018    2  0.0018    2  0.0018
    2  0.0018    2  0.0018    3  0.0018    3  0.0018    3  0.0018    3  0.0018
    5  0.8612    5  0.0119    6  0.0119    6  0.8612    7  0.8612    7  0.0119
    8  0.0119    8  0.8612    9  0.0119    9  0.8612   10  0.8612   10  0.0119
   11  0.2075   12  0.2075
   5    1  0.2075    2  0.8612    2  0.0119    3  0.8612    3  0.0119    4  0.8612
    4  0.0119    6  0.1145    7  0.0092    7  0.0092    8  0.1628    8  0.1628
    9  0.0092    9  0.0092   10  0.1628   10  0.1628   11  0.0092   11  0.0092
   12  0.1628   12  0.1628
   6    1  0.2075    2  0.0119    2  0.8612    3  0.0119    3  0.8612    4  0.0119
    4  0.8612    5  0.1145    7  0.1628    7  0.1628    8  0.0092    8  0.0092
    9  0.1628    9  0.1628   10  0.0092   10  0.0092   11  0.1628   11  0.1628
   12  0.0092   12  0.0092
   7    1  0.0119    1  0.8612    2  0.2075    3  0.0119    3  0.8612    4  0.8612
    4  0.0119    5  0.0092    5  0.0092    6  0.1628    6  0.1628    8  0.1145
    9  0.0092    9  0.0092   10  0.1628   10  0.1628   11  0.0092   11  0.0092
   12  0.1628   12  0.1628
   8    1  0.8612    1  0.0119    2  0.2075    3  0.8612    3  0.0119    4  0.0119
    4  0.8612    5  0.1628    5  0.1628    6  0.0092    6  0.0092    7  0.1145
    9  0.1628    9  0.1628   10  0.0092   10  0.0092   11  0.1628   11  0.1628
   12  0.0092   12  0.0092
   9    1  0.0119    1  0.8612    2  0.8612    2  0.0119    3  0.2075    4  0.0119
    4  0.8612    5  0.0092    5  0.0092    6  0.1628    6  0.1628    7  0.0092
    7  0.0092    8  0.1628    8  0.1628   10  0.1145   11  0.0092   11  0.0092
   12  0.1628   12  0.1628
  10    1  0.8612    1  0.0119    2  0.0119    2  0.8612    3  0.2075    4  0.8612
    4  0.0119    5  0.1628    5  0.1628    6  0.0092    6  0.0092    7  0.1628
    7  0.1628    8  0.0092    8  0.0092    9  0.1145   11  0.1628   11  0.1628
   12  0.0092   12  0.0092
  11    1  0.0119    1  0.8612    2  0.0119    2  0.8612    3  0.8612    3  0.0119
    4  0.2075    5  0.0092    5  0.0092    6  0.1628    6  0.1628    7  0.0092
    7  0.0092    8  0.1628    8  0.1628    9  0.0092    9  0.0092   10  0.1628
   10  0.1628   12  0.1145
  12    1  0.8612    1  0.0119    2  0.8612    2  0.0119    3  0.0119    3  0.8612
    4  0.2075    5  0.1628    5  0.1628    6  0.0092    6  0.0092    7  0.1628
    7  0.1628    8  0.0092    8  0.0092    9  0.1628    9  0.1628   10  0.0092
   10  0.0092   11  0.1145

  ReaxFF: Bond Order pi prime: 

   1    2  0.0000    2  0.0000    2  0.0000    2  0.0000    3  0.0000    3  0.0000
    3  0.0000    3  0.0000    4  0.0000    4  0.0000    4  0.0000    4  0.0000
    5  0.0000    6  0.0000    7  0.0000    7  0.0000    8  0.0000    8  0.0000
    9  0.0000    9  0.0000   10  0.0000   10  0.0000   11  0.0000   11  0.0000
   12  0.0000   12  0.0000
   2    1  0.0000    1  0.0000    1  0.0000    1  0.0000    3  0.0000    3  0.0000
    3  0.0000    3  0.0000    4  0.0000    4  0.0000    4  0.0000    4  0.0000
    5  0.0000    5  0.0000    6  0.0000    6  0.0000    7  0.0000    8  0.0000
    9  0.0000    9  0.0000   10  0.0000   10  0.0000   11  0.0000   11  0.0000
   12  0.0000   12  0.0000
   3    1  0.0000    1  0.0000    1  0.0000    1  0.0000    2  0.0000    2  0.0000
    2  0.0000    2  0.0000    4  0.0000    4  0.0000    4  0.0000    4  0.0000
    5  0.0000    5  0.0000    6  0.0000    6  0.0000    7  0.0000    7  0.0000
    8  0.0000    8  0.0000    9  0.0000   10  0.0000   11  0.0000   11  0.0000
   12  0.0000   12  0.0000
   4    1  0.0000    1  0.0000    1  0.0000    1  0.0000    2  0.0000    2  0.0000
    2  0.0000    2  0.0000    3  0.0000    3  0.0000    3  0.0000    3  0.0000
    5  0.0000    5  0.0000    6  0.0000    6  0.0000    7  0.0000    7  0.0000
    8  0.0000    8  0.0000    9  0.0000    9  0.0000   10  0.0000   10  0.0000
   11  0.0000   12  0.0000
   5    1  0.0000    2  0.0000    2  0.0000    3  0.0000    3  0.0000    4  0.0000
    4  0.0000    6  0.0000    7  0.0000    7  0.0000    8  0.0000    8  0.0000
    9  0.0000    9  0.0000   10  0.0000   10  0.0000   11  0.0000   11  0.0000
   12  0.0000   12  0.0000
   6    1  0.0000    2  0.0000    2  0.0000    3  0.0000    3  0.0000    4  0.0000
    4  0.0000    5  0.0000    7  0.0000    7  0.0000    8  0.0000    8  0.0000
    9  0.0000    9  0.0000   10  0.0000   10  0.0000   11  0.0000   11  0.0000
   12  0.0000   12  0.0000
   7    1  0.0000    1  0.0000    2  0.0000    3  0.0000    3  0.0000    4  0.0000
    4  0.0000    5  0.0000    5  0.0000    6  0.0000    6  0.0000    8  0.0000
    9  0.0000    9  0.0000   10  0.0000   10  0.0000   11  0.0000   11  0.0000
   12  0.0000   12  0.0000
   8    1  0.0000    1  0.0000    2  0.0000    3  0.0000    3  0.0000    4  0.0000
    4  0.0000    5  0.0000    5  0.0000    6  0.0000    6  0.0000    7  0.0000
    9  0.0000    9  0.0000   10  0.0000   10  0.0000   11  0.0000   11  0.0000
   12  0.0000   12  0.0000
   9    1  0.0000    1  0.0000    2  0.0000    2  0.0000    3  0.0000    4  0.0000
    4  0.0000    5  0.0000    5  0.0000    6  0.0000    6  0.0000    7  0.0000
    7  0.0000    8  0.0000    8  0.0000   10  0.0000   11  0.0000   11  0.0000
   12  0.0000   12  0.0000
  10    1  0.0000    1  0.0000    2  0.0000    2  0.0000    3  0.0000    4  0.0000
    4  0.0000    5  0.0000    5  0.0000    6  0.0000    6  0.0000    7  0.0000
    7  0.0000    8  0.0000    8  0.0000    9  0.0000   11  0.0000   11  0.0000
   12  0.0000   12  0.0000
  11    1  0.0000    1  0.0000    2  0.0000    2  0.0000    3  0.0000    3  0.0000
    4  0.0000    5  0.0000    5  0.0000    6  0.0000    6  0.0000    7  0.0000
    7  0.0000    8  0.0000    8  0.0000    9  0.0000    9  0.0000   10  0.0000
   10  0.0000   12  0.0000
  12    1  0.0000    1  0.0000    2  0.0000    2  0.0000    3  0.0000    3  0.0000
    4  0.0000    5  0.0000    5  0.0000    6  0.0000    6  0.0000    7  0.0000
    7  0.0000    8  0.0000    8  0.0000    9  0.0000    9  0.0000   10  0.0000
   10  0.0000   11  0.0000

  ReaxFF: Bond Order pi-pi prime: 

   1    2  0.0000    2  0.0000    2  0.0000    2  0.0000    3  0.0000    3  0.0000
    3  0.0000    3  0.0000    4  0.0000    4  0.0000    4  0.0000    4  0.0000
    5  0.0000    6  0.0000    7  0.0000    7  0.0000    8  0.0000    8  0.0000
    9  0.0000    9  0.0000   10  0.0000   10  0.0000   11  0.0000   11  0.0000
   12  0.0000   12  0.0000
   2    1  0.0000    1  0.0000    1  0.0000    1  0.0000    3  0.0000    3  0.0000
    3  0.0000    3  0.0000    4  0.0000    4  0.0000    4  0.0000    4  0.0000
    5  0.0000    5  0.0000    6  0.0000    6  0.0000    7  0.0000    8  0.0000
    9  0.0000    9  0.0000   10  0.0000   10  0.0000   11  0.0000   11  0.0000
   12  0.0000   12  0.0000
   3    1  0.0000    1  0.0000    1  0.0000    1  0.0000    2  0.0000    2  0.0000
    2  0.0000    2  0.0000    4  0.0000    4  0.0000    4  0.0000    4  0.0000
    5  0.0000    5  0.0000    6  0.0000    6  0.0000    7  0.0000    7  0.0000
    8  0.0000    8  0.0000    9  0.0000   10  0.0000   11  0.0000   11  0.0000
   12  0.0000   12  0.0000
   4    1  0.0000    1  0.0000    1  0.0000    1  0.0000    2  0.0000    2  0.0000
    2  0.0000    2  0.0000    3  0.0000    3  0.0000    3  0.0000    3  0.0000
    5  0.0000    5  0.0000    6  0.0000    6  0.0000    7  0.0000    7  0.0000
    8  0.0000    8  0.0000    9  0.0000    9  0.0000   10  0.0000   10  0.0000
   11  0.0000   12  0.0000
   5    1  0.0000    2  0.0000    2  0.0000    3  0.0000    3  0.0000    4  0.0000
    4  0.0000    6  0.0000    7  0.0000    7  0.0000    8  0.0000    8  0.0000
    9  0.0000    9  0.0000   10  0.0000   10  0.0000   11  0.0000   11  0.0000
   12  0.0000   12  0.0000
   6    1  0.0000    2  0.0000    2  0.0000    3  0.0000    3  0.0000    4  0.0000
    4  0.0000    5  0.0000    7  0.0000    7  0.0000    8  0.0000    8  0.0000
    9  0.0000    9  0.0000   10  0.0000   10  0.0000   11  0.0000   11  0.0000
   12  0.0000   12  0.0000
   7    1  0.0000    1  0.0000    2  0.0000    3  0.0000    3  0.0000    4  0.0000
    4  0.0000    5  0.0000    5  0.0000    6  0.0000    6  0.0000    8  0.0000
    9  0.0000    9  0.0000   10  0.0000   10  0.0000   11  0.0000   11  0.0000
   12  0.0000   12  0.0000
   8    1  0.0000    1  0.0000    2  0.0000    3  0.0000    3  0.0000    4  0.0000
    4  0.0000    5  0.0000    5  0.0000    6  0.0000    6  0.0000    7  0.0000
    9  0.0000    9  0.0000   10  0.0000   10  0.0000   11  0.0000   11  0.0000
   12  0.0000   12  0.0000
   9    1  0.0000    1  0.0000    2  0.0000    2  0.0000    3  0.0000    4  0.0000
    4  0.0000    5  0.0000    5  0.0000    6  0.0000    6  0.0000    7  0.0000
    7  0.0000    8  0.0000    8  0.0000   10  0.0000   11  0.0000   11  0.0000
   12  0.0000   12  0.0000
  10    1  0.0000    1  0.0000    2  0.0000    2  0.0000    3  0.0000    4  0.0000
    4  0.0000    5  0.0000    5  0.0000    6  0.0000    6  0.0000    7  0.0000
    7  0.0000    8  0.0000    8  0.0000    9  0.0000   11  0.0000   11  0.0000
   12  0.0000   12  0.0000
  11    1  0.0000    1  0.0000    2  0.0000    2  0.0000    3  0.0000    3  0.0000
    4  0.0000    5  0.0000    5  0.0000    6  0.0000    6  0.0000    7  0.0000
    7  0.0000    8  0.0000    8  0.0000    9  0.0000    9  0.0000   10  0.0000
   10  0.0000   12  0.0000
  12    1  0.0000    1  0.0000    2  0.0000    2  0.0000    3  0.0000    3  0.0000
    4  0.0000    5  0.0000    5  0.0000    6  0.0000    6  0.0000    7  0.0000
    7  0.0000    8  0.0000    8  0.0000    9  0.0000    9  0.0000   10  0.0000
   10  0.0000   11  0.0000



  ReaxFF: Delta and Bond Order: 

   1  2.675551    2  0.0018    2  0.0018    2  0.0018    2  0.0018    3  0.0018    3  0.0018
    3  0.0018    3  0.0018    4  0.0018    4  0.0018    4  0.0018    4  0.0018
    5  0.2075    6  0.2075    7  0.0119    7  0.8612    8  0.8612    8  0.0119
    9  0.0119    9  0.8612   10  0.8612   10  0.0119   11  0.0119   11  0.8612
   12  0.8612   12  0.0119
   2  2.675551    1  0.0018    1  0.0018    1  0.0018    1  0.0018    3  0.0018    3  0.0018
    3  0.0018    3  0.0018    4  0.0018    4  0.0018    4  0.0018    4  0.0018
    5  0.8612    5  0.0119    6  0.0119    6  0.8612    7  0.2075    8  0.2075
    9  0.8612    9  0.0119   10  0.0119   10  0.8612   11  0.0119   11  0.8612
   12  0.8612   12  0.0119
   3  2.675551    1  0.0018    1  0.0018    1  0.0018    1  0.0018    2  0.0018    2  0.0018
    2  0.0018    2  0.0018    4  0.0018    4  0.0018    4  0.0018    4  0.0018
    5  0.8612    5  0.0119    6  0.0119    6  0.8612    7  0.0119    7  0.8612
    8  0.8612    8  0.0119    9  0.2075   10  0.2075   11  0.8612   11  0.0119
   12  0.0119   12  0.8612
   4  2.675551    1  0.0018    1  0.0018    1  0.0018    1  0.0018    2  0.0018    2  0.0018
    2  0.0018    2  0.0018    3  0.0018    3  0.0018    3  0.0018    3  0.0018
    5  0.8612    5  0.0119    6  0.0119    6  0.8612    7  0.8612    7  0.0119
    8  0.0119    8  0.8612    9  0.0119    9  0.8612   10  0.8612   10  0.0119
   11  0.2075   12  0.2075
   5  1.404027    1  0.2075    2  0.8612    2  0.0119    3  0.8612    3  0.0119    4  0.8612
    4  0.0119    6  0.0576    7  0.0047    7  0.0047    8  0.0820    8  0.0820
    9  0.0047    9  0.0047   10  0.0820   10  0.0820   11  0.0047   11  0.0047
   12  0.0820   12  0.0820
   6  1.404027    1  0.2075    2  0.0119    2  0.8612    3  0.0119    3  0.8612    4  0.0119
    4  0.8612    5  0.0576    7  0.0820    7  0.0820    8  0.0047    8  0.0047
    9  0.0820    9  0.0820   10  0.0047   10  0.0047   11  0.0820   11  0.0820
   12  0.0047   12  0.0047
   7  1.404027    1  0.0119    1  0.8612    2  0.2075    3  0.0119    3  0.8612    4  0.8612
    4  0.0119    5  0.0047    5  0.0047    6  0.0820    6  0.0820    8  0.0576
    9  0.0047    9  0.0047   10  0.0820   10  0.0820   11  0.0047   11  0.0047
   12  0.0820   12  0.0820
   8  1.404027    1  0.8612    1  0.0119    2  0.2075    3  0.8612    3  0.0119    4  0.0119
    4  0.8612    5  0.0820    5  0.0820    6  0.0047    6  0.0047    7  0.0576
    9  0.0820    9  0.0820   10  0.0047   10  0.0047   11  0.0820   11  0.0820
   12  0.0047   12  0.0047
   9  1.404027    1  0.0119    1  0.8612    2  0.8612    2  0.0119    3  0.2075    4  0.0119
    4  0.8612    5  0.0047    5  0.0047    6  0.0820    6  0.0820    7  0.0047
    7  0.0047    8  0.0820    8  0.0820   10  0.0576   11  0.0047   11  0.0047
   12  0.0820   12  0.0820
  10  1.404027    1  0.8612    1  0.0119    2  0.0119    2  0.8612    3  0.2075    4  0.8612
    4  0.0119    5  0.0820    5  0.0820    6  0.0047    6  0.0047    7  0.0820
    7  0.0820    8  0.0047    8  0.0047    9  0.0576   11  0.0820   11  0.0820
   12  0.0047   12  0.0047
  11  1.404027    1  0.0119    1  0.8612    2  0.0119    2  0.8612    3  0.8612    3  0.0119
    4  0.2075    5  0.0047    5  0.0047    6  0.0820    6  0.0820    7  0.0047
    7  0.0047    8  0.0820    8  0.0820    9  0.0047    9  0.0047   10  0.0820
   10  0.0820   12  0.0576
  12  1.404027    1  0.8612    1  0.0119    2  0.8612    2  0.0119    3  0.0119    3  0.8612
    4  0.2075    5  0.0820    5  0.0820    6  0.0047    6  0.0047    7  0.0820
    7  0.0820    8  0.0047    8  0.0047    9  0.0820    9  0.0820   10  0.0047
   10  0.0047   11  0.0576

  ReaxFF: Delta lone pair: 

   1  1.000000
   2  1.000000
   3  1.000000
   4  1.000000
   5  0.999994
   6  0.999994
   7  0.999994
   8  0.999994
   9  0.999994
  10  0.999994
  11  0.999994
  12  0.999994


  ReaxFF : Energy contributions: 

  E(bond)     =     -76.89695598 eV =    -1773.2745638 kcal
  E(bpen)     =       0.00000000 eV =        0.0000000 kcal
  E(lonepair) =       1.21398851 eV =       27.9950607 kcal
  E(over)     =      12.31787883 eV =      284.0552131 kcal
  E(under)    =       0.00000000 eV =        0.0000000 kcal
  E(val)      =      16.02232689 eV =      369.4812669 kcal
  E(pen)      =       0.00000000 eV =        0.0000000 kcal
  E(coa)      =       0.00000000 eV =        0.0000000 kcal
  E(tors)     =       2.18706620 eV =       50.4346214 kcal
  E(conj)     =       0.00000000 eV =        0.0000000 kcal
  E(hb)       =       0.00000000 eV =        0.0000000 kcal
  E(vdw)      =       6.06748930 eV =      139.9187301 kcal
  E(coulomb)  =      -3.31963495 eV =      -76.5521097 kcal
  E(self)     =      -0.12229308 eV =       -2.8201274 kcal

  ReaxFF: Delta and Bond Order prime: 

   1  2.590116    2  0.0014    2  0.0014    2  0.0014    2  0.0014    3  0.0014    3  0.0014
    3  0.0014    3  0.0014    4  0.0014    4  0.0014    4  0.0014    4  0.0014
    5  0.1766    6  0.1766    7  0.0131    7  0.8570    8  0.8570    8  0.0131
    9  0.0131    9  0.8570   10  0.8570   10  0.0131   11  0.0131   11  0.8570
   12  0.8570   12  0.0131
   2  2.590116    1  0.0014    1  0.0014    1  0.0014    1  0.0014    3  0.0014    3  0.0014
    3  0.0014    3  0.0014    4  0.0014    4  0.0014    4  0.0014    4  0.0014
    5  0.8570    5  0.0131    6  0.0131    6  0.8570    7  0.1766    8  0.1766
    9  0.8570    9  0.0131   10  0.0131   10  0.8570   11  0.0131   11  0.8570
   12  0.8570   12  0.0131
   3  2.590116    1  0.0014    1  0.0014    1  0.0014    1  0.0014    2  0.0014    2  0.0014
    2  0.0014    2  0.0014    4  0.0014    4  0.0014    4  0.0014    4  0.0014
    5  0.8570    5  0.0131    6  0.0131    6  0.8570    7  0.0131    7  0.8570
    8  0.8570    8  0.0131    9  0.1766   10  0.1766   11  0.8570   11  0.0131
   12  0.0131   12  0.8570
   4  2.590116    1  0.0014    1  0.0014    1  0.0014    1  0.0014    2  0.0014    2  0.0014
    2  0.0014    2  0.0014    3  0.0014    3  0.0014    3  0.0014    3  0.0014
    5  0.8570    5  0.0131    6  0.0131    6  0.8570    7  0.8570    7  0.0131
    8  0.0131    8  0.8570    9  0.0131    9  0.8570   10  0.8570   10  0.0131
   11  0.1766   12  0.1766
   5  1.863076    1  0.1766    2  0.8570    2  0.0131    3  0.8570    3  0.0131    4  0.8570
    4  0.0131    6  0.1467    7  0.0087    7  0.0087    8  0.1462    8  0.1462
    9  0.0087    9  0.0087   10  0.1462   10  0.1462   11  0.0087   11  0.0087
   12  0.1462   12  0.1462
   6  1.863076    1  0.1766    2  0.0131    2  0.8570    3  0.0131    3  0.8570    4  0.0131
    4  0.8570    5  0.1467    7  0.1462    7  0.1462    8  0.0087    8  0.0087
    9  0.1462    9  0.1462   10  0.0087   10  0.0087   11  0.1462   11  0.1462
   12  0.0087   12  0.0087
   7  1.863076    1  0.0131    1  0.8570    2  0.1766    3  0.0131    3  0.8570    4  0.8570
    4  0.0131    5  0.0087    5  0.0087    6  0.1462    6  0.1462    8  0.1467
    9  0.0087    9  0.0087   10  0.1462   10  0.1462   11  0.0087   11  0.0087
   12  0.1462   12  0.1462
   8  1.863076    1  0.8570    1  0.0131    2  0.1766    3  0.8570    3  0.0131    4  0.0131
    4  0.8570    5  0.1462    5  0.1462    6  0.0087    6  0.0087    7  0.1467
    9  0.1462    9  0.1462   10  0.0087   10  0.0087   11  0.1462   11  0.1462
   12  0.0087   12  0.0087
   9  1.863076    1  0.0131    1  0.8570    2  0.8570    2  0.0131    3  0.1766    4  0.0131
    4  0.8570    5  0.0087    5  0.0087    6  0.1462    6  0.1462    7  0.0087
    7  0.0087    8  0.1462    8  0.1462   10  0.1467   11  0.0087   11  0.0087
   12  0.1462   12  0.1462
  10  1.863076    1  0.8570    1  0.0131    2  0.0131    2  0.8570    3  0.1766    4  0.8570
    4  0.0131    5  0.1462    5  0.1462    6  0.0087    6  0.0087    7  0.1462
    7  0.1462    8  0.0087    8  0.0087    9  0.1467   11  0.1462   11  0.1462
   12  0.0087   12  0.0087
  11  1.863076    1  0.0131    1  0.8570    2  0.0131    2  0.8570    3  0.8570    3  0.0131
    4  0.1766    5  0.0087    5  0.0087    6  0.1462    6  0.1462    7  0.0087
    7  0.0087    8  0.1462    8  0.1462    9  0.0087    9  0.0087   10  0.1462
   10  0.1462   12  0.1467
  12  1.863076    1  0.8570    1  0.0131    2  0.8570    2  0.0131    3  0.0131    3  0.8570
    4  0.1766    5  0.1462    5  0.1462    6  0.0087    6  0.0087    7  0.1462
    7  0.1462    8  0.0087    8  0.0087    9  0.1462    9  0.1462   10  0.0087
   10  0.0087   11  0.1467

  ReaxFF: Bond Order sigma prime: 

   1    2  0.0014    2  0.0014    2  0.0014    2  0.0014    3  0.0014    3  0.0014
    3  0.0014    3  0.0014    4  0.0014    4  0.0014    4  0.0014    4  0.0014
    5  0.1766    6  0.1766    7  0.0131    7  0.8570    8  0.8570    8  0.0131
    9  0.0131    9  0.8570   10  0.8570   10  0.0131   11  0.0131   11  0.8570
   12  0.8570   12  0.0131
   2    1  0.0014    1  0.0014    1  0.0014    1  0.0014    3  0.0014    3  0.0014
    3  0.0014    3  0.0014    4  0.0014    4  0.0014    4  0.0014    4  0.0014
    5  0.8570    5  0.0131    6  0.0131    6  0.8570    7  0.1766    8  0.1766
    9  0.8570    9  0.0131   10  0.0131   10  0.8570   11  0.0131   11  0.8570
   12  0.8570   12  0.0131
   3    1  0.0014    1  0.0014    1  0.0014    1  0.0014    2  0.0014    2  0.0014
    2  0.0014    2  0.0014    4  0.0014    4  0.0014    4  0.0014    4  0.0014
    5  0.8570    5  0.0131    6  0.0131    6  0.8570    7  0.0131    7  0.8570
    8  0.8570    8  0.0131    9  0.1766   10  0.1766   11  0.8570   11  0.0131
   12  0.0131   12  0.8570
   4    1  0.0014    1  0.0014    1  0.0014    1  0.0014    2  0.0014    2  0.0014
    2  0.0014    2  0.0014    3  0.0014    3  0.0014    3  0.0014    3  0.0014
    5  0.8570    5  0.0131    6  0.0131    6  0.8570    7  0.8570    7  0.0131
    8  0.0131    8  0.8570    9  0.0131    9  0.8570   10  0.8570   10  0.0131
   11  0.1766   12  0.1766
   5    1  0.1766    2  0.8570    2  0.0131    3  0.8570    3  0.0131    4  0.8570
    4  0.0131    6  0.1467    7  0.0087    7  0.0087    8  0.1462    8  0.1462
    9  0.0087    9  0.0087   10  0.1462   10  0.1462   11  0.0087   11  0.0087
   12  0.1462   12  0.1462
   6    1  0.1766    2  0.0131    2  0.8570    3  0.0131    3  0.8570    4  0.0131
    4  0.8570    5  0.1467    7  0.1462    7  0.1462    8  0.0087    8  0.0087
    9  0.1462    9  0.1462   10  0.0087   10  0.0087   11  0.1462   11  0.1462
   12  0.0087   12  0.0087
   7    1  0.0131    1  0.8570    2  0.1766    3  0.0131    3  0.8570    4  0.8570
    4  0.0131    5  0.0087    5  0.0087    6  0.1462    6  0.1462    8  0.1467
    9  0.0087    9  0.0087   10  0.1462   10  0.1462   11  0.0087   11  0.0087
   12  0.1462   12  0.1462
   8    1  0.8570    1  0.0131    2  0.1766    3  0.8570    3  0.0131    4  0.0131
    4  0.8570    5  0.1462    5  0.1462    6  0.0087    6  0.0087    7  0.1467
    9  0.1462    9  0.1462   10  0.0087   10  0.0087   11  0.1462   11  0.1462
   12  0.0087   12  0.0087
   9    1  0.0131    1  0.8570    2  0.8570    2  0.0131    3  0.1766    4  0.0131
    4  0.8570    5  0.0087    5  0.0087    6  0.1462    6  0.1462    7  0.0087
    7  0.0087    8  0.1462    8  0.1462   10  0.1467   11  0.0087   11  0.0087
   12  0.1462   12  0.1462
  10    1  0.8570    1  0.0131    2  0.0131    2  0.8570    3  0.1766    4  0.8570
    4  0.0131    5  0.1462    5  0.1462    6  0.0087    6  0.0087    7  0.1462
    7  0.1462    8  0.0087    8  0.0087    9  0.1467   11  0.1462   11  0.1462
   12  0.0087   12  0.0087
  11    1  0.0131    1  0.8570    2  0.0131    2  0.8570    3  0.8570    3  0.0131
    4  0.1766    5  0.0087    5  0.0087    6  0.1462    6  0.1462    7  0.0087
    7  0.0087    8  0.1462    8  0.1462    9  0.0087    9  0.0087   10  0.1462
   10  0.1462   12  0.1467
  12    1  0.8570    1  0.0131    2  0.8570    2  0.0131    3  0.0131    3  0.8570
    4  0.1766    5  0.1462    5  0.1462    6  0.0087    6  0.0087    7  0.1462
    7  0.1462    8  0.0087    8  0.0087    9  0.1462    9  0.1462   10  0.0087
   10  0.0087   11  0.1467

  ReaxFF: Bond Order pi prime: 

   1    2  0.0000    2  0.0000    2  0.0000    2  0.0000    3  0.0000    3  0.0000
    3  0.0000    3  0.0000    4  0.0000    4  0.0000    4  0.0000    4  0.0000
    5  0.0000    6  0.0000    7  0.0000    7  0.0000    8  0.0000    8  0.0000
    9  0.0000    9  0.0000   10  0.0000   10  0.0000   11  0.0000   11  0.0000
   12  0.0000   12  0.0000
   2    1  0.0000    1  0.0000    1  0.0000    1  0.0000    3  0.0000    3  0.0000
    3  0.0000    3  0.0000    4  0.0000    4  0.0000    4  0.0000    4  0.0000
    5  0.0000    5  0.0000    6  0.0000    6  0.0000    7  0.0000    8  0.0000
    9  0.0000    9  0.0000   10  0.0000   10  0.0000   11  0.0000   11  0.0000
   12  0.0000   12  0.0000
   3    1  0.0000    1  0.0000    1  0.0000    1  0.0000    2  0.0000    2  0.0000
    2  0.0000    2  0.0000    4  0.0000    4  0.0000    4  0.0000    4  0.0000
    5  0.0000    5  0.0000    6  0.0000    6  0.0000    7  0.0000    7  0.0000
    8  0.0000    8  0.0000    9  0.0000   10  0.0000   11  0.0000   11  0.0000
   12  0.0000   12  0.0000
   4    1  0.0000    1  0.0000    1  0.0000    1  0.0000    2  0.0000    2  0.0000
    2  0.0000    2  0.0000    3  0.0000    3  0.0000    3  0.0000    3  0.0000
    5  0.0000    5  0.0000    6  0.0000    6  0.0000    7  0.0000    7  0.0000
    8  0.0000    8  0.0000    9  0.0000    9  0.0000   10  0.0000   10  0.0000
   11  0.0000   12  0.0000
   5    1  0.0000    2  0.0000    2  0.0000    3  0.0000    3  0.0000    4  0.0000
    4  0.0000    6  0.0000    7  0.0000    7  0.0000    8  0.0000    8  0.0000
    9  0.0000    9  0.0000   10  0.0000   10  0.0000   11  0.0000   11  0.0000
   12  0.0000   12  0.0000
   6    1  0.0000    2  0.0000    2  0.0000    3  0.0000    3  0.0000    4  0.0000
    4  0.0000    5  0.0000    7  0.0000    7  0.0000    8  0.0000    8  0.0000
    9  0.0000    9  0.0000   10  0.0000   10  0.0000   11  0.0000   11  0.0000
   12  0.0000   12  0.0000
   7    1  0.0000    1  0.0000    2  0.0000    3  0.0000    3  0.0000    4  0.0000
    4  0.0000    5  0.0000    5  0.0000    6  0.0000    6  0.0000    8  0.0000
    9  0.0000    9  0.0000   10  0.0000   10  0.0000   11  0.0000   11  0.0000
   12  0.0000   12  0.0000
   8    1  0.0000    1  0.0000    2  0.0000    3  0.0000    3  0.0000    4  0.0000
    4  0.0000    5  0.0000    5  0.0000    6  0.0000    6  0.0000    7  0.0000
    9  0.0000    9  0.0000   10  0.0000   10  0.0000   11  0.0000   11  0.0000
   12  0.0000   12  0.0000
   9    1  0.0000    1  0.0000    2  0.0000    2  0.0000    3  0.0000    4  0.0000
    4  0.0000    5  0.0000    5  0.0000    6  0.0000    6  0.0000    7  0.0000
    7  0.0000    8  0.0000    8  0.0000   10  0.0000   11  0.0000   11  0.0000
   12  0.0000   12  0.0000
  10    1  0.0000    1  0.0000    2  0.0000    2  0.0000    3  0.0000    4  0.0000
    4  0.0000    5  0.0000    5  0.0000    6  0.0000    6  0.0000    7  0.0000
    7  0.0000    8  0.0000    8  0.0000    9  0.0000   11  0.0000   11  0.0000
   12  0.0000   12  0.0000
[...]
    2  0.0005    2  0.0005    4  0.0005    4  0.0005    4  0.0005    4  0.0005
    5  0.8166    5  0.1042    6  0.1042    6  0.8166    7  0.1042    7  0.8166
    8  0.8166    8  0.1042    9  0.0106   10  0.0106   11  0.8166   11  0.1042
   12  0.1042   12  0.8166
   4    1  0.0005    1  0.0005    1  0.0005    1  0.0005    2  0.0005    2  0.0005
    2  0.0005    2  0.0005    3  0.0005    3  0.0005    3  0.0005    3  0.0005
    5  0.8166    5  0.1042    6  0.1042    6  0.8166    7  0.8166    7  0.1042
    8  0.1042    8  0.8166    9  0.1042    9  0.8166   10  0.8166   10  0.1042
   11  0.0106   12  0.0106
   5    1  0.0106    2  0.8166    2  0.1042    3  0.8166    3  0.1042    4  0.8166
    4  0.1042    6  0.8548    7  0.0075    7  0.0075    8  0.0347    8  0.0347
    9  0.0075    9  0.0075   10  0.0347   10  0.0347   11  0.0075   11  0.0075
   12  0.0347   12  0.0347
   6    1  0.0106    2  0.1042    2  0.8166    3  0.1042    3  0.8166    4  0.1042
    4  0.8166    5  0.8548    7  0.0347    7  0.0347    8  0.0075    8  0.0075
    9  0.0347    9  0.0347   10  0.0075   10  0.0075   11  0.0347   11  0.0347
   12  0.0075   12  0.0075
   7    1  0.1042    1  0.8166    2  0.0106    3  0.1042    3  0.8166    4  0.8166
    4  0.1042    5  0.0075    5  0.0075    6  0.0347    6  0.0347    8  0.8548
    9  0.0075    9  0.0075   10  0.0347   10  0.0347   11  0.0075   11  0.0075
   12  0.0347   12  0.0347
   8    1  0.8166    1  0.1042    2  0.0106    3  0.8166    3  0.1042    4  0.1042
    4  0.8166    5  0.0347    5  0.0347    6  0.0075    6  0.0075    7  0.8548
    9  0.0347    9  0.0347   10  0.0075   10  0.0075   11  0.0347   11  0.0347
   12  0.0075   12  0.0075
   9    1  0.1042    1  0.8166    2  0.8166    2  0.1042    3  0.0106    4  0.1042
    4  0.8166    5  0.0075    5  0.0075    6  0.0347    6  0.0347    7  0.0075
    7  0.0075    8  0.0347    8  0.0347   10  0.8548   11  0.0075   11  0.0075
   12  0.0347   12  0.0347
  10    1  0.8166    1  0.1042    2  0.1042    2  0.8166    3  0.0106    4  0.8166
    4  0.1042    5  0.0347    5  0.0347    6  0.0075    6  0.0075    7  0.0347
    7  0.0347    8  0.0075    8  0.0075    9  0.8548   11  0.0347   11  0.0347
   12  0.0075   12  0.0075
  11    1  0.1042    1  0.8166    2  0.1042    2  0.8166    3  0.8166    3  0.1042
    4  0.0106    5  0.0075    5  0.0075    6  0.0347    6  0.0347    7  0.0075
    7  0.0075    8  0.0347    8  0.0347    9  0.0075    9  0.0075   10  0.0347
   10  0.0347   12  0.8548
  12    1  0.8166    1  0.1042    2  0.8166    2  0.1042    3  0.1042    3  0.8166
    4  0.0106    5  0.0347    5  0.0347    6  0.0075    6  0.0075    7  0.0347
    7  0.0347    8  0.0075    8  0.0075    9  0.0347    9  0.0347   10  0.0075
   10  0.0075   11  0.8548

  ReaxFF: Bond Order pi prime: 

   1    2  0.0000    2  0.0000    2  0.0000    2  0.0000    3  0.0000    3  0.0000
    3  0.0000    3  0.0000    4  0.0000    4  0.0000    4  0.0000    4  0.0000
    5  0.0000    6  0.0000    7  0.0000    7  0.0000    8  0.0000    8  0.0000
    9  0.0000    9  0.0000   10  0.0000   10  0.0000   11  0.0000   11  0.0000
   12  0.0000   12  0.0000
   2    1  0.0000    1  0.0000    1  0.0000    1  0.0000    3  0.0000    3  0.0000
    3  0.0000    3  0.0000    4  0.0000    4  0.0000    4  0.0000    4  0.0000
    5  0.0000    5  0.0000    6  0.0000    6  0.0000    7  0.0000    8  0.0000
    9  0.0000    9  0.0000   10  0.0000   10  0.0000   11  0.0000   11  0.0000
   12  0.0000   12  0.0000
   3    1  0.0000    1  0.0000    1  0.0000    1  0.0000    2  0.0000    2  0.0000
    2  0.0000    2  0.0000    4  0.0000    4  0.0000    4  0.0000    4  0.0000
    5  0.0000    5  0.0000    6  0.0000    6  0.0000    7  0.0000    7  0.0000
    8  0.0000    8  0.0000    9  0.0000   10  0.0000   11  0.0000   11  0.0000
   12  0.0000   12  0.0000
   4    1  0.0000    1  0.0000    1  0.0000    1  0.0000    2  0.0000    2  0.0000
    2  0.0000    2  0.0000    3  0.0000    3  0.0000    3  0.0000    3  0.0000
    5  0.0000    5  0.0000    6  0.0000    6  0.0000    7  0.0000    7  0.0000
    8  0.0000    8  0.0000    9  0.0000    9  0.0000   10  0.0000   10  0.0000
   11  0.0000   12  0.0000
   5    1  0.0000    2  0.0000    2  0.0000    3  0.0000    3  0.0000    4  0.0000
    4  0.0000    6  0.5331    7  0.0000    7  0.0000    8  0.0000    8  0.0000
    9  0.0000    9  0.0000   10  0.0000   10  0.0000   11  0.0000   11  0.0000
   12  0.0000   12  0.0000
   6    1  0.0000    2  0.0000    2  0.0000    3  0.0000    3  0.0000    4  0.0000
    4  0.0000    5  0.5331    7  0.0000    7  0.0000    8  0.0000    8  0.0000
    9  0.0000    9  0.0000   10  0.0000   10  0.0000   11  0.0000   11  0.0000
   12  0.0000   12  0.0000
   7    1  0.0000    1  0.0000    2  0.0000    3  0.0000    3  0.0000    4  0.0000
    4  0.0000    5  0.0000    5  0.0000    6  0.0000    6  0.0000    8  0.5331
    9  0.0000    9  0.0000   10  0.0000   10  0.0000   11  0.0000   11  0.0000
   12  0.0000   12  0.0000
   8    1  0.0000    1  0.0000    2  0.0000    3  0.0000    3  0.0000    4  0.0000
    4  0.0000    5  0.0000    5  0.0000    6  0.0000    6  0.0000    7  0.5331
    9  0.0000    9  0.0000   10  0.0000   10  0.0000   11  0.0000   11  0.0000
   12  0.0000   12  0.0000
   9    1  0.0000    1  0.0000    2  0.0000    2  0.0000    3  0.0000    4  0.0000
    4  0.0000    5  0.0000    5  0.0000    6  0.0000    6  0.0000    7  0.0000
    7  0.0000    8  0.0000    8  0.0000   10  0.5331   11  0.0000   11  0.0000
   12  0.0000   12  0.0000
  10    1  0.0000    1  0.0000    2  0.0000    2  0.0000    3  0.0000    4  0.0000
    4  0.0000    5  0.0000    5  0.0000    6  0.0000    6  0.0000    7  0.0000
    7  0.0000    8  0.0000    8  0.0000    9  0.5331   11  0.0000   11  0.0000
   12  0.0000   12  0.0000
  11    1  0.0000    1  0.0000    2  0.0000    2  0.0000    3  0.0000    3  0.0000
    4  0.0000    5  0.0000    5  0.0000    6  0.0000    6  0.0000    7  0.0000
    7  0.0000    8  0.0000    8  0.0000    9  0.0000    9  0.0000   10  0.0000
   10  0.0000   12  0.5331
  12    1  0.0000    1  0.0000    2  0.0000    2  0.0000    3  0.0000    3  0.0000
    4  0.0000    5  0.0000    5  0.0000    6  0.0000    6  0.0000    7  0.0000
    7  0.0000    8  0.0000    8  0.0000    9  0.0000    9  0.0000   10  0.0000
   10  0.0000   11  0.5331

  ReaxFF: Bond Order pi-pi prime: 

   1    2  0.0000    2  0.0000    2  0.0000    2  0.0000    3  0.0000    3  0.0000
    3  0.0000    3  0.0000    4  0.0000    4  0.0000    4  0.0000    4  0.0000
    5  0.0000    6  0.0000    7  0.0000    7  0.0000    8  0.0000    8  0.0000
    9  0.0000    9  0.0000   10  0.0000   10  0.0000   11  0.0000   11  0.0000
   12  0.0000   12  0.0000
   2    1  0.0000    1  0.0000    1  0.0000    1  0.0000    3  0.0000    3  0.0000
    3  0.0000    3  0.0000    4  0.0000    4  0.0000    4  0.0000    4  0.0000
    5  0.0000    5  0.0000    6  0.0000    6  0.0000    7  0.0000    8  0.0000
    9  0.0000    9  0.0000   10  0.0000   10  0.0000   11  0.0000   11  0.0000
   12  0.0000   12  0.0000
   3    1  0.0000    1  0.0000    1  0.0000    1  0.0000    2  0.0000    2  0.0000
    2  0.0000    2  0.0000    4  0.0000    4  0.0000    4  0.0000    4  0.0000
    5  0.0000    5  0.0000    6  0.0000    6  0.0000    7  0.0000    7  0.0000
    8  0.0000    8  0.0000    9  0.0000   10  0.0000   11  0.0000   11  0.0000
   12  0.0000   12  0.0000
   4    1  0.0000    1  0.0000    1  0.0000    1  0.0000    2  0.0000    2  0.0000
    2  0.0000    2  0.0000    3  0.0000    3  0.0000    3  0.0000    3  0.0000
    5  0.0000    5  0.0000    6  0.0000    6  0.0000    7  0.0000    7  0.0000
    8  0.0000    8  0.0000    9  0.0000    9  0.0000   10  0.0000   10  0.0000
   11  0.0000   12  0.0000
   5    1  0.0000    2  0.0000    2  0.0000    3  0.0000    3  0.0000    4  0.0000
    4  0.0000    6  0.0000    7  0.0000    7  0.0000    8  0.0000    8  0.0000
    9  0.0000    9  0.0000   10  0.0000   10  0.0000   11  0.0000   11  0.0000
   12  0.0000   12  0.0000
   6    1  0.0000    2  0.0000    2  0.0000    3  0.0000    3  0.0000    4  0.0000
    4  0.0000    5  0.0000    7  0.0000    7  0.0000    8  0.0000    8  0.0000
    9  0.0000    9  0.0000   10  0.0000   10  0.0000   11  0.0000   11  0.0000
   12  0.0000   12  0.0000
   7    1  0.0000    1  0.0000    2  0.0000    3  0.0000    3  0.0000    4  0.0000
    4  0.0000    5  0.0000    5  0.0000    6  0.0000    6  0.0000    8  0.0000
    9  0.0000    9  0.0000   10  0.0000   10  0.0000   11  0.0000   11  0.0000
   12  0.0000   12  0.0000
   8    1  0.0000    1  0.0000    2  0.0000    3  0.0000    3  0.0000    4  0.0000
    4  0.0000    5  0.0000    5  0.0000    6  0.0000    6  0.0000    7  0.0000
    9  0.0000    9  0.0000   10  0.0000   10  0.0000   11  0.0000   11  0.0000
   12  0.0000   12  0.0000
   9    1  0.0000    1  0.0000    2  0.0000    2  0.0000    3  0.0000    4  0.0000
    4  0.0000    5  0.0000    5  0.0000    6  0.0000    6  0.0000    7  0.0000
    7  0.0000    8  0.0000    8  0.0000   10  0.0000   11  0.0000   11  0.0000
   12  0.0000   12  0.0000
  10    1  0.0000    1  0.0000    2  0.0000    2  0.0000    3  0.0000    4  0.0000
    4  0.0000    5  0.0000    5  0.0000    6  0.0000    6  0.0000    7  0.0000
    7  0.0000    8  0.0000    8  0.0000    9  0.0000   11  0.0000   11  0.0000
   12  0.0000   12  0.0000
  11    1  0.0000    1  0.0000    2  0.0000    2  0.0000    3  0.0000    3  0.0000
    4  0.0000    5  0.0000    5  0.0000    6  0.0000    6  0.0000    7  0.0000
    7  0.0000    8  0.0000    8  0.0000    9  0.0000    9  0.0000   10  0.0000
   10  0.0000   12  0.0000
  12    1  0.0000    1  0.0000    2  0.0000    2  0.0000    3  0.0000    3  0.0000
    4  0.0000    5  0.0000    5  0.0000    6  0.0000    6  0.0000    7  0.0000
    7  0.0000    8  0.0000    8  0.0000    9  0.0000    9  0.0000   10  0.0000
   10  0.0000   11  0.0000



  ReaxFF: Delta and Bond Order: 

   1  2.552420    2  0.0005    2  0.0005    2  0.0005    2  0.0005    3  0.0005    3  0.0005
    3  0.0005    3  0.0005    4  0.0005    4  0.0005    4  0.0005    4  0.0005
    5  0.0106    6  0.0106    7  0.1042    7  0.8166    8  0.8166    8  0.1042
    9  0.1042    9  0.8166   10  0.8166   10  0.1042   11  0.1042   11  0.8166
   12  0.8166   12  0.1042
   2  2.552420    1  0.0005    1  0.0005    1  0.0005    1  0.0005    3  0.0005    3  0.0005
    3  0.0005    3  0.0005    4  0.0005    4  0.0005    4  0.0005    4  0.0005
    5  0.8166    5  0.1042    6  0.1042    6  0.8166    7  0.0106    8  0.0106
    9  0.8166    9  0.1042   10  0.1042   10  0.8166   11  0.1042   11  0.8166
   12  0.8166   12  0.1042
   3  2.552420    1  0.0005    1  0.0005    1  0.0005    1  0.0005    2  0.0005    2  0.0005
    2  0.0005    2  0.0005    4  0.0005    4  0.0005    4  0.0005    4  0.0005
    5  0.8166    5  0.1042    6  0.1042    6  0.8166    7  0.1042    7  0.8166
    8  0.8166    8  0.1042    9  0.0106   10  0.0106   11  0.8166   11  0.1042
   12  0.1042   12  0.8166
   4  2.552420    1  0.0005    1  0.0005    1  0.0005    1  0.0005    2  0.0005    2  0.0005
    2  0.0005    2  0.0005    3  0.0005    3  0.0005    3  0.0005    3  0.0005
    5  0.8166    5  0.1042    6  0.1042    6  0.8166    7  0.8166    7  0.1042
    8  0.1042    8  0.8166    9  0.1042    9  0.8166   10  0.8166   10  0.1042
   11  0.0106   12  0.0106
   5  1.516643    1  0.0106    2  0.8166    2  0.1042    3  0.8166    3  0.1042    4  0.8166
    4  0.1042    6  0.6288    7  0.0034    7  0.0034    8  0.0157    8  0.0157
    9  0.0034    9  0.0034   10  0.0157   10  0.0157   11  0.0034   11  0.0034
   12  0.0157   12  0.0157
   6  1.516643    1  0.0106    2  0.1042    2  0.8166    3  0.1042    3  0.8166    4  0.1042
    4  0.8166    5  0.6288    7  0.0157    7  0.0157    8  0.0034    8  0.0034
    9  0.0157    9  0.0157   10  0.0034   10  0.0034   11  0.0157   11  0.0157
   12  0.0034   12  0.0034
   7  1.516643    1  0.1042    1  0.8166    2  0.0106    3  0.1042    3  0.8166    4  0.8166
    4  0.1042    5  0.0034    5  0.0034    6  0.0157    6  0.0157    8  0.6288
    9  0.0034    9  0.0034   10  0.0157   10  0.0157   11  0.0034   11  0.0034
   12  0.0157   12  0.0157
   8  1.516643    1  0.8166    1  0.1042    2  0.0106    3  0.8166    3  0.1042    4  0.1042
    4  0.8166    5  0.0157    5  0.0157    6  0.0034    6  0.0034    7  0.6288
    9  0.0157    9  0.0157   10  0.0034   10  0.0034   11  0.0157   11  0.0157
   12  0.0034   12  0.0034
   9  1.516643    1  0.1042    1  0.8166    2  0.8166    2  0.1042    3  0.0106    4  0.1042
    4  0.8166    5  0.0034    5  0.0034    6  0.0157    6  0.0157    7  0.0034
    7  0.0034    8  0.0157    8  0.0157   10  0.6288   11  0.0034   11  0.0034
   12  0.0157   12  0.0157
  10  1.516643    1  0.8166    1  0.1042    2  0.1042    2  0.8166    3  0.0106    4  0.8166
    4  0.1042    5  0.0157    5  0.0157    6  0.0034    6  0.0034    7  0.0157
    7  0.0157    8  0.0034    8  0.0034    9  0.6288   11  0.0157   11  0.0157
   12  0.0034   12  0.0034
  11  1.516643    1  0.1042    1  0.8166    2  0.1042    2  0.8166    3  0.8166    3  0.1042
    4  0.0106    5  0.0034    5  0.0034    6  0.0157    6  0.0157    7  0.0034
    7  0.0034    8  0.0157    8  0.0157    9  0.0034    9  0.0034   10  0.0157
   10  0.0157   12  0.6288
  12  1.516643    1  0.8166    1  0.1042    2  0.8166    2  0.1042    3  0.1042    3  0.8166
    4  0.0106    5  0.0157    5  0.0157    6  0.0034    6  0.0034    7  0.0157
    7  0.0157    8  0.0034    8  0.0034    9  0.0157    9  0.0157   10  0.0034
   10  0.0034   11  0.6288

  ReaxFF: Delta lone pair: 

   1  1.000000
   2  1.000000
   3  1.000000
   4  1.000000
   5  0.999999
   6  0.999999
   7  0.999999
   8  0.999999
   9  0.999999
  10  0.999999
  11  0.999999
  12  0.999999


  ReaxFF : Energy contributions: 

  E(bond)     =     -78.05702943 eV =    -1800.0263214 kcal
  E(bpen)     =       0.00000000 eV =        0.0000000 kcal
  E(lonepair) =       1.21399494 eV =       27.9952090 kcal
  E(over)     =      12.42317601 eV =      286.4834080 kcal
  E(under)    =       0.00000000 eV =        0.0000000 kcal
  E(val)      =      14.01837821 eV =      323.2694088 kcal
  E(pen)      =       0.00000000 eV =        0.0000000 kcal
  E(coa)      =       0.00000000 eV =        0.0000000 kcal
  E(tors)     =       0.20219012 eV =        4.6625850 kcal
  E(conj)     =       0.00000000 eV =        0.0000000 kcal
  E(hb)       =       0.00000000 eV =        0.0000000 kcal
  E(vdw)      =       6.11205713 eV =      140.9464822 kcal
  E(coulomb)  =      -2.97478507 eV =      -68.5997337 kcal
  E(self)     =      -0.34657127 eV =       -7.9920722 kcal
  **** Ftol satisfied in optimiser ****
  **** Gmax satisfied in optimiser ****
  **** Gtol satisfied in optimiser ****
  **** Xtol satisfied in optimiser ****


  **** Optimisation achieved ****


  Final energy =     -47.40858937 eV
  Final Gnorm  =       0.00024128

  Components of energy : 

--------------------------------------------------------------------------------
  Interatomic potentials     =           0.00000000 eV    
  ReaxFF force field         =         -47.40858937 eV    
  Monopole - monopole (real) =           0.00000000 eV    
  Monopole - monopole (recip)=           0.00000000 eV    
  Monopole - monopole (total)=           0.00000000 eV    
--------------------------------------------------------------------------------
  Total lattice energy       =         -47.40858937 eV    
--------------------------------------------------------------------------------
  Total lattice energy       =           -4574.2042 kJ/(mole unit cells)
--------------------------------------------------------------------------------

  Final asymmetric unit coordinates :

--------------------------------------------------------------------------------
   No.  Atomic        x           y           z         Radius
        Label       (Frac)      (Frac)      (Frac)       (Angs) 
--------------------------------------------------------------------------------
     1  Fe    c     0.000000    0.000000    0.000000    0.000000
     2  S     c     0.398012    0.398012    0.398012    0.000000
--------------------------------------------------------------------------------

  Final Cartesian lattice vectors (Angstroms) :

        5.470804    0.000000    0.000000
        0.000000    5.470804    0.000000
        0.000000    0.000000    5.470804


  Final cell parameters and derivatives :

--------------------------------------------------------------------------------
       a            5.470804 Angstrom     dE/de1(xx)     0.000033 eV/strain
       b            5.470804 Angstrom     dE/de2(yy)     0.000033 eV/strain
       c            5.470804 Angstrom     dE/de3(zz)     0.000033 eV/strain
       alpha       90.000000 Degrees      dE/de4(yz)     0.000000 eV/strain
       beta        90.000000 Degrees      dE/de5(xz)     0.000000 eV/strain
       gamma       90.000000 Degrees      dE/de6(xy)    -0.000000 eV/strain
--------------------------------------------------------------------------------

  Primitive cell volume =           163.739542 Angs**3

  Density of cell =      4.867517 g/cm**3

  Non-primitive cell volume =           163.739542 Angs**3


  Final internal derivatives :

--------------------------------------------------------------------------------
   No.  Atomic          a             b             c           Radius
        Label          (eV)          (eV)          (eV)        (eV/Angs)
--------------------------------------------------------------------------------
      1 Fe    c       0.000000      0.000000      0.000000      0.000000
      2 S     c       0.001688      0.000000      0.000000      0.000000
--------------------------------------------------------------------------------
  Maximum abs         0.001688      0.000000      0.000000      0.000000
--------------------------------------------------------------------------------


  Time to end of optimisation =       0.2113 seconds



  Final charges from ReaxFF :

--------------------------------------------------------------------------------
    Atom no.            Atomic No.             Charge
--------------------------------------------------------------------------------
         1                  26                 0.3462632
         2                  26                 0.3462632
         3                  26                 0.3462632
         4                  26                 0.3462632
         5                  16                -0.1731316
         6                  16                -0.1731316
         7                  16                -0.1731316
         8                  16                -0.1731316
         9                  16                -0.1731316
        10                  16                -0.1731316
        11                  16                -0.1731316
        12                  16                -0.1731316
--------------------------------------------------------------------------------


  Peak dynamic memory used =       0.53 MB 


  Timing analysis for GULP :

--------------------------------------------------------------------------------
  Task / Subroutine                                          Time (Seconds)
--------------------------------------------------------------------------------
  Calculation of reaxFF energy and derivatives                    0.1888
  Electronegativity equalisation                                  0.0109
  Symmetry generation of equivalent positions                     0.0006
--------------------------------------------------------------------------------
  Total CPU time                                                  0.2117
--------------------------------------------------------------------------------


  CIF file written as output.cif                                              


  Job Finished at 06:34.35 11th July       2019                               

