
         
 *******************************************************************************
 *                                                                             *
 *                               CRYSTAL17                                     *
 *                      public : 1.0.1 - Feb 1st, 2017                         *
 *                       HTTP://WWW.CRYSTAL.UNITO.IT                           *
 *                                                                             *
 *                              MAIN AUTHORS                                   *
 *                                                                             *
 *  R. DOVESI(1,11), V.R. SAUNDERS(2), C. ROETTI(1,11), R. ORLANDO(1,11),      *
 *  C.M. ZICOVICH-WILSON(1,3), F. PASCALE(4), B. CIVALLERI(1,11),              *
 *  K. DOLL(5), N.M. HARRISON(2,6), I.J. BUSH(7), Ph. D'ARCO(8),               *
 *  M. LLUNELL(9), M. CAUSA'(10), Y. NOEL(8), L. MASCHIO(1,11), A. ERBA(1,11)  *
 *  M. RE'RAT(14), S. CASASSA(1,11)                                            *
 *                                                                             *
 *        CONTRIBUTIONS TO THE CODE HAVE ALSO BEEN GIVEN BY                    *
 *                                                                             *
 *  M. FERRABONE(1,11), M. DE LA PIERRE(1,11), M. FERRERO(1,11),               *
 *  J. BAIMA(1,11), E. ALBANESE(1,11), M.F. PEINTINGER(12), R. BAST(13),       *
 *  B. KIRTMAN(15), V. LACIVITA(1,11), R. DEMICHELIS(1,16)                     *
 *  G. BRANDEBURG(17), S. SALUSTRO(1,11), G. SANSONE(1,11)                     *
 *  M.T. RUGGIERO(18)                                                          *
 *                                                                             *
 * (1) THEORETICAL CHEMISTRY GROUP - UNIVERSITA' DI TORINO - TORINO (ITALY)    *

 * (2) COMPUTATIONAL SCIENCE & ENGINEERING DEPARTMENT - STFC DARESBURY (UK)    *
 * (3) UNIVERSIDAD AUTONOMA DEL ESTADO DE MORELOS - CUERNAVACA (MEXICO)        *
 * (4) UNIVERSITE' DE LORRAINE - NANCY (FRANCE)                                *
 * (5) UNIVERSITAET STUTTGART- STUTTGART (GERMANY)                             *
 * (6) IMPERIAL COLLEGE - LONDON (UK)                                          *
 * (7) OXFORD E-RESEARCH CENTRE - OXFORD (UK)                                  *
 * (8) UPMC - SORBONNE UNIVERSITES - PARIS (FRANCE)                            *
 * (9) UNIVERSIDAD DE BARCELONA - BARCELONA (SPAIN)                            *
 *(10) UNIVERSITA' DI NAPOLI "FEDERICO II" - NAPOLI (ITALY)                    *
 *(11) NIS - NANOSTRUCTURED INTERFACES AND SURFACES - TORINO (ITALY)           *
 *(12) MPI FUER CHEMISCHE ENERGIEKONVERSION - MUELHEIM AN DER RUHR (GERMANY)   *
 *(13) UNIVERSITY OF TROMSO - TROMSO (NORWAY)                                  *
 *(14) UNIVERSITE' DE PAU ET DES PAYS DE L'ADOUR - PAU (FRANCE)                *
 *(15) UNIVERSITY OF CALIFORNIA SANTA BARBARA - SANTA BARBARA (USA)            *
 *(16) CURTIN UNIVERSITY - PERTH (AUSTRALIA)                                   *
 *(17) UNIVERSITY COLLEGE LONDON - LONDON (UK)                                 *
 *(18) CAMBRIDGE UNIVERSITY - CAMBRIDGE (UK)                                   *
 *                                                                             *
 *******************************************************************************
 EEEEEEEEEE STARTING  DATE 07 07 2019 TIME 22:27:44.9
 NiO Bulk with AFM spin                                                          

 GEOMETRY INPUT FROM EXTERNAL FILE (FORTRAN UNIT 34)
 3D - CRYSTAL 

 *******************************************************************************
 LATTICE PARAMETERS  (ANGSTROMS AND DEGREES) - PRIMITIVE CELL
       A          B          C        ALPHA      BETA     GAMMA        VOLUME
    2.94439    2.94439    4.16400    90.00000  90.00000  90.00000     36.099581

 NUMBER OF IRREDUCIBLE ATOMS IN THE CELL:    4

 CARTESIAN COORDINATES (ANGSTROM) - IRREDUCIBLE ATOMS AND SYMMETRY RELATED

 AT.IRR.  AT  AT.N.          X                   Y                   Z
     1     1    28    0.000000000000E+00  0.000000000000E+00  0.000000000000E+00
     2     2    28    1.472196318000E+00  1.472196318000E+00  2.082000000000E+00
     3     3     8    0.000000000000E+00  0.000000000000E+00  2.082000000000E+00
     4     4     8    1.472196318000E+00  1.472196318000E+00  0.000000000000E+00

 SPACE  GROUP  N.                     :  123
 NUMBER OF SYMMETRY OPERATORS         :   16
 *******************************************************************************
 LATTICE PARAMETERS (ANGSTROMS AND DEGREES) - BOHR = 0.5291772083 ANGSTROM
 PRIMITIVE CELL - CENTRING CODE 1/0 VOLUME=    36.099581 - DENSITY  6.801 g/cm^3
         A              B              C           ALPHA      BETA       GAMMA 
     2.94439264     2.94439264     4.16400000    90.000000  90.000000  90.000000
 *******************************************************************************
 ATOMS IN THE ASYMMETRIC UNIT    4 - ATOMS IN THE UNIT CELL:    4
     ATOM                 X/A                 Y/B                 Z/C    
 *******************************************************************************
      1 T  28 NI    0.000000000000E+00  0.000000000000E+00  0.000000000000E+00
      2 T  28 NI    4.999999998302E-01  4.999999998302E-01 -5.000000000000E-01
      3 T   8 O     0.000000000000E+00  0.000000000000E+00 -5.000000000000E-01
      4 T   8 O     4.999999998302E-01  4.999999998302E-01  0.000000000000E+00

 T = ATOM BELONGING TO THE ASYMMETRIC UNIT
 *******************************************************************************
 * GEOMETRY EDITING - INPUT COORDINATES ARE GIVEN IN ANGSTROM         
 *******************************************************************************

 GEOMETRY NOW FULLY CONSISTENT WITH THE GROUP

 GCALCO - MAX INDICES DIRECT LATTICE VECTOR    16    16    12
 NO.OF VECTORS CREATED 6999 STARS  166 RMAX    74.23430 BOHR

 GEOMETRY FOR WAVE FUNCTION - DIMENSIONALITY OF THE SYSTEM    3
 (NON PERIODIC DIRECTION: LATTICE PARAMETER FORMALLY SET TO 500)
 *******************************************************************************
 LATTICE PARAMETERS (ANGSTROMS AND DEGREES) - BOHR = 0.5291772083 ANGSTROM
 PRIMITIVE CELL - CENTRING CODE 1/0 VOLUME=    36.099581 - DENSITY  6.801 g/cm^3
         A              B              C           ALPHA      BETA       GAMMA 
     2.94439264     2.94439264     4.16400000    90.000000  90.000000  90.000000
 *******************************************************************************
 ATOMS IN THE ASYMMETRIC UNIT    4 - ATOMS IN THE UNIT CELL:    4
     ATOM                 X/A                 Y/B                 Z/C    
 *******************************************************************************
      1 T  28 NI    0.000000000000E+00  0.000000000000E+00  0.000000000000E+00
      2 T  28 NI   -5.000000000000E-01 -5.000000000000E-01 -5.000000000000E-01
      3 T   8 O     0.000000000000E+00  0.000000000000E+00 -5.000000000000E-01
      4 T   8 O    -5.000000000000E-01 -5.000000000000E-01  0.000000000000E+00

 T = ATOM BELONGING TO THE ASYMMETRIC UNIT

 ****   16 SYMMOPS - TRANSLATORS IN FRACTIONAL UNITS
 **** MATRICES AND TRANSLATORS IN THE CRYSTALLOGRAPHIC REFERENCE FRAME
   V INV                    ROTATION MATRICES                   TRANSLATORS
   1   1  1.00  0.00  0.00  0.00  1.00  0.00  0.00  0.00  1.00  0.00  0.00  0.00
   2   3  0.00 -1.00  0.00  1.00  0.00  0.00  0.00  0.00  1.00  0.00  0.00  0.00
   3   2  0.00  1.00  0.00 -1.00  0.00  0.00  0.00  0.00  1.00  0.00  0.00  0.00
   4   4 -1.00  0.00  0.00  0.00 -1.00  0.00  0.00  0.00  1.00  0.00  0.00  0.00
   5   5  1.00  0.00  0.00  0.00 -1.00  0.00  0.00  0.00 -1.00  0.00  0.00  0.00
   6   6  0.00 -1.00  0.00 -1.00  0.00  0.00  0.00  0.00 -1.00  0.00  0.00  0.00
   7   7 -1.00  0.00  0.00  0.00  1.00  0.00  0.00  0.00 -1.00  0.00  0.00  0.00
   8   8  0.00  1.00  0.00  1.00  0.00  0.00  0.00  0.00 -1.00  0.00  0.00  0.00
   9   9 -1.00  0.00  0.00  0.00 -1.00  0.00  0.00  0.00 -1.00  0.00  0.00  0.00
  10  11  0.00  1.00  0.00 -1.00  0.00  0.00  0.00  0.00 -1.00  0.00  0.00  0.00
  11  10  0.00 -1.00  0.00  1.00  0.00  0.00  0.00  0.00 -1.00  0.00  0.00  0.00
  12  12  1.00  0.00  0.00  0.00  1.00  0.00  0.00  0.00 -1.00  0.00  0.00  0.00
  13  13 -1.00  0.00  0.00  0.00  1.00  0.00  0.00  0.00  1.00  0.00  0.00  0.00
  14  14  0.00  1.00  0.00  1.00  0.00  0.00  0.00  0.00  1.00  0.00  0.00  0.00
  15  15  1.00  0.00  0.00  0.00 -1.00  0.00  0.00  0.00  1.00  0.00  0.00  0.00
  16  16  0.00 -1.00  0.00 -1.00  0.00  0.00  0.00  0.00  1.00  0.00  0.00  0.00

 DIRECT LATTICE VECTORS CARTESIAN COMPONENTS (ANGSTROM)
          X                    Y                    Z
   0.294439263700E+01   0.000000000000E+00   0.000000000000E+00
   0.000000000000E+00   0.294439263700E+01   0.000000000000E+00
   0.000000000000E+00   0.000000000000E+00   0.416400000000E+01


 CARTESIAN COORDINATES - PRIMITIVE CELL
 *******************************************************************************
 *      ATOM          X(ANGSTROM)         Y(ANGSTROM)         Z(ANGSTROM)
 *******************************************************************************
    1    28 NI    0.000000000000E+00  0.000000000000E+00  0.000000000000E+00
    2    28 NI    1.472196318500E+00  1.472196318500E+00  2.082000000000E+00
    3     8 O     0.000000000000E+00  0.000000000000E+00  2.082000000000E+00
    4     8 O     1.472196318500E+00  1.472196318500E+00  0.000000000000E+00

 *******************************************************************************
 LOCAL ATOMIC FUNCTIONS BASIS SET
 *******************************************************************************
   ATOM   X(AU)   Y(AU)   Z(AU)  N. TYPE  EXPONENT  S COEF   P COEF   D/F/G COEF
 *******************************************************************************
   1 NI   0.000   0.000   0.000
                                  1 S  
                                         1.680E+03 1.543E-01 0.000E+00 0.000E+00
                                         3.060E+02 5.353E-01 0.000E+00 0.000E+00
                                         8.281E+01 4.446E-01 0.000E+00 0.000E+00
                           2-     5 SP 
                                         1.329E+02-9.997E-02 1.559E-01 0.000E+00
                                         3.087E+01 3.995E-01 6.077E-01 0.000E+00
                                         1.004E+01 7.001E-01 3.920E-01 0.000E+00
                           6-     9 SP 
                                         1.033E+01-2.278E-01 4.952E-03 0.000E+00
                                         3.151E+00 2.175E-01 5.778E-01 0.000E+00
                                         1.216E+00 9.167E-01 4.846E-01 0.000E+00
                          10-    13 SP 
                                         6.309E-01-3.088E-01-1.215E-01 0.000E+00
                                         2.329E-01 1.961E-02 5.715E-01 0.000E+00
                                         1.028E-01 1.131E+00 5.499E-01 0.000E+00
                          14-    18 D  
                                         8.628E+00 0.000E+00 0.000E+00 2.198E-01
                                         2.632E+00 0.000E+00 0.000E+00 6.555E-01
                                         1.015E+00 0.000E+00 0.000E+00 2.866E-01
   2 NI   2.782   2.782   3.934
   3 O    0.000   0.000   3.934
                                 37 S  
                                         1.307E+02 1.543E-01 0.000E+00 0.000E+00
                                         2.381E+01 5.353E-01 0.000E+00 0.000E+00
                                         6.444E+00 4.446E-01 0.000E+00 0.000E+00
                          38-    41 SP 
                                         5.033E+00-9.997E-02 1.559E-01 0.000E+00
                                         1.170E+00 3.995E-01 6.077E-01 0.000E+00
                                         3.804E-01 7.001E-01 3.920E-01 0.000E+00
   4 O    2.782   2.782   0.000
 INFORMATION **** SET_MPP **** PCRYSTAL CALCULATION
 INFORMATION **** READM2 **** NEW DEFAULT: FOCK/KS MATRIX MIXING SET TO 30 %
 INFORMATION **** READM2 **** NEW DEFAULT: FULL DIRECT SCF MODE
 INFORMATION **** READM2 **** NEW DEFAULT: COULOMB BIPOLAR BUFFER SET TO 32 Mb
 INFORMATION **** READM2 **** NEW DEFAULT: EXCHANGE BIPOLAR BUFFER SET TO 32 Mb
 INFORMATION **** UHF **** SPIN POLARIZED SOLUTIONS ALLOWED
 SSSSSSSSSSSSSSSSSSSSSSSSSSSSSSSSSSSSSSSSSSSSSSSSSSSSSSSSSSSSSSSSSSSSSSSSSSSSSS
 ATOMIC SPINS SET TO (ATOM, AT. N., SPIN)
   1  28 1   2  28-1   3   8 0   4   8 0
 INFORMATION **** MAXCYCLE **** MAX NUMBER OF SCF CYCLES SET TO          10
 INFORMATION **** SPINLOCK **** LOCK IN A GIVEN SPIN STATE
 ALPHA-BETA ELECTRONS LOCKED TO   0 FOR  15 SCF CYCLES
 INFORMATION **** PPAN ****  MULLIKEN POPULATION ANALYSIS AT THE END OF SCF
 *******************************************************************************
 N. OF ATOMS PER CELL         4  COULOMB OVERLAP TOL         (T1) 10**   -6
 NUMBER OF SHELLS            14  COULOMB PENETRATION TOL     (T2) 10**   -6
 NUMBER OF AO                46  EXCHANGE OVERLAP TOL        (T3) 10**   -6
 N. OF ELECTRONS PER CELL    72  EXCHANGE PSEUDO OVP (F(G))  (T4) 10**   -6
 CORE ELECTRONS PER CELL     40  EXCHANGE PSEUDO OVP (P(G))  (T5) 10**  -12
 N. OF SYMMETRY OPERATORS    16  POLE ORDER IN MONO ZONE                  4
 *******************************************************************************
 TYPE OF CALCULATION :  UNRESTRICTED OPEN SHELL
 HARTREE-FOCK HAMILTONIAN

 CAPPA:IS1  8;IS2  8;IS3  8; K PTS MONK NET  75; SYMMOPS:K SPACE  16;G SPACE  16

 *******************************************************************************
 MAX NUMBER OF SCF CYCLES      10  CONVERGENCE ON DELTAP        10**-16
 WEIGHT OF F(I) IN F(I+1)      50% CONVERGENCE ON ENERGY        10**- 6
 SHRINK. FACT.(MONKH.)    8  8  8  NUMBER OF K POINTS IN THE IBZ     75
 SHRINKING FACTOR(GILAT NET)    8  NUMBER OF K POINTS(GILAT NET)     75
 *******************************************************************************
 *** K POINTS COORDINATES (OBLIQUE COORDINATES IN UNITS OF IS =  8)
   1-R(  0  0  0)   2-C(  1  0  0)   3-C(  2  0  0)   4-C(  3  0  0)
   5-R(  4  0  0)   6-C(  1  1  0)   7-C(  2  1  0)   8-C(  3  1  0)
   9-C(  4  1  0)  10-C(  2  2  0)  11-C(  3  2  0)  12-C(  4  2  0)
  13-C(  3  3  0)  14-C(  4  3  0)  15-R(  4  4  0)  16-C(  0  0  1)
  17-C(  1  0  1)  18-C(  2  0  1)  19-C(  3  0  1)  20-C(  4  0  1)
  21-C(  1  1  1)  22-C(  2  1  1)  23-C(  3  1  1)  24-C(  4  1  1)
  25-C(  2  2  1)  26-C(  3  2  1)  27-C(  4  2  1)  28-C(  3  3  1)
  29-C(  4  3  1)  30-C(  4  4  1)  31-C(  0  0  2)  32-C(  1  0  2)
  33-C(  2  0  2)  34-C(  3  0  2)  35-C(  4  0  2)  36-C(  1  1  2)
  37-C(  2  1  2)  38-C(  3  1  2)  39-C(  4  1  2)  40-C(  2  2  2)
  41-C(  3  2  2)  42-C(  4  2  2)  43-C(  3  3  2)  44-C(  4  3  2)
  45-C(  4  4  2)  46-C(  0  0  3)  47-C(  1  0  3)  48-C(  2  0  3)
  49-C(  3  0  3)  50-C(  4  0  3)  51-C(  1  1  3)  52-C(  2  1  3)
  53-C(  3  1  3)  54-C(  4  1  3)  55-C(  2  2  3)  56-C(  3  2  3)
  57-C(  4  2  3)  58-C(  3  3  3)  59-C(  4  3  3)  60-C(  4  4  3)
  61-R(  0  0  4)  62-C(  1  0  4)  63-C(  2  0  4)  64-C(  3  0  4)
  65-R(  4  0  4)  66-C(  1  1  4)  67-C(  2  1  4)  68-C(  3  1  4)
  69-C(  4  1  4)  70-C(  2  2  4)  71-C(  3  2  4)  72-C(  4  2  4)
  73-C(  3  3  4)  74-C(  4  3  4)  75-R(  4  4  4)

 DIRECT LATTICE VECTORS COMPON. (A.U.)     RECIP. LATTICE VECTORS COMPON. (A.U.) 
        X            Y            Z              X            Y            Z
    5.5640957    0.0000000    0.0000000      1.1292375    0.0000000    0.0000000
    0.0000000    5.5640957    0.0000000      0.0000000    1.1292375    0.0000000
    0.0000000    0.0000000    7.8688196      0.0000000    0.0000000    0.7984915

 DISK SPACE FOR EIGENVECTORS (FTN 10)      304704 REALS

 SYMMETRY ADAPTION OF THE BLOCH FUNCTIONS ENABLED
 TTTTTTTTTTTTTTTTTTTTTTTTTTTTTT gordsh1     TELAPSE        0.02 TCPU        0.01

 MATRIX SIZE: P(G)   78570, F(G)   12604, P(G) IRR    5703, F(G) IRR    2496
 MAX G-VECTOR INDEX FOR 1- AND 2-ELECTRON INTEGRALS 389

 TTTTTTTTTTTTTTTTTTTTTTTTTTTTTT INPUT       TELAPSE        0.02 TCPU        0.01

 NEIGHBORS OF THE NON-EQUIVALENT ATOMS

 N = NUMBER OF NEIGHBORS AT DISTANCE R
    ATOM  N     R/ANG      R/AU   NEIGHBORS (ATOM LABELS AND CELL INDICES)
   1 NI   6     2.0820     3.9344    3 O    0 0 0    3 O    0 0-1    4 O    0 0 0
                                     4 O   -1 0 0    4 O    0-1 0    4 O   -1-1 0
   1 NI  12     2.9444     5.5641    2 NI   0 0 0    2 NI  -1 0 0    2 NI   0-1 0
                                     2 NI  -1-1 0    2 NI   0 0-1    2 NI  -1 0-1
                                     2 NI   0-1-1    2 NI  -1-1-1    1 NI  -1 0 0
                                     1 NI   1 0 0    1 NI   0-1 0    1 NI   0 1 0
   1 NI   8     3.6061     6.8146    3 O    1 0 0    3 O   -1 0 0    3 O    0 1 0
                                     3 O    0-1 0    3 O   -1 0-1    3 O    1 0-1
                                     3 O    0-1-1    3 O    0 1-1
   1 NI   6     4.1640     7.8688    1 NI   0 0-1    1 NI   0 0 1    1 NI  -1-1 0
                                     1 NI   1 1 0    1 NI  -1 1 0    1 NI   1-1 0
   1 NI  24     4.6555     8.7976    4 O    0 0-1    4 O    0 0 1    4 O   -1 0-1
                                     4 O   -1 0 1    4 O    0-1-1    4 O    0-1 1
                                     4 O   -1-1-1    4 O   -1-1 1    3 O    1 1 0
                                     3 O   -1-1 0    3 O    1-1 0    3 O   -1 1 0
                                     3 O   -1-1-1    3 O    1 1-1    3 O   -1 1-1
                                     3 O    1-1-1    4 O    1 0 0    4 O    0 1 0
                                     4 O   -1 1 0    4 O    1-1 0    4 O   -2 0 0
                                     4 O    0-2 0    4 O   -2-1 0    4 O   -1-2 0
   1 NI  24     5.0998     9.6373    1 NI  -1 0-1    1 NI   1 0 1    1 NI  -1 0 1
                                     1 NI   1 0-1    1 NI   0-1-1    1 NI   0 1 1
                                     1 NI   0-1 1    1 NI   0 1-1    2 NI   1 0 0
                                     2 NI   0 1 0    2 NI   1-1 0    2 NI  -1 1 0
                                     2 NI   1 0-1    2 NI   0 1-1    2 NI  -2 0 0
                                     2 NI  -1 1-1    2 NI   1-1-1    2 NI   0-2 0
                                     2 NI  -2-1 0    2 NI  -1-2 0    2 NI  -2 0-1
                                     2 NI   0-2-1    2 NI  -2-1-1    2 NI  -1-2-1

   2 NI   6     2.0820     3.9344    4 O    0 0 0    4 O    0 0 1    3 O    0 0 0
                                     3 O    1 0 0    3 O    0 1 0    3 O    1 1 0
   2 NI  12     2.9444     5.5641    1 NI   0 0 0    1 NI   1 0 0    1 NI   0 1 0
                                     1 NI   1 1 0    1 NI   0 0 1    1 NI   1 0 1
                                     1 NI   0 1 1    1 NI   1 1 1    2 NI  -1 0 0
                                     2 NI   1 0 0    2 NI   0-1 0    2 NI   0 1 0
   2 NI   8     3.6061     6.8146    4 O   -1 0 0    4 O    1 0 0    4 O    0-1 0
                                     4 O    0 1 0    4 O    1 0 1    4 O   -1 0 1
                                     4 O    0 1 1    4 O    0-1 1
   2 NI   6     4.1640     7.8688    2 NI   0 0-1    2 NI   0 0 1    2 NI  -1-1 0
                                     2 NI   1 1 0    2 NI  -1 1 0    2 NI   1-1 0
   2 NI  24     4.6555     8.7976    3 O    0 0 1    3 O    0 0-1    3 O    1 0 1
                                     3 O    1 0-1    3 O    0 1 1    3 O    0 1-1
                                     3 O    1 1 1    3 O    1 1-1    4 O   -1-1 0
                                     4 O    1 1 0    4 O   -1 1 0    4 O    1-1 0
                                     4 O    1 1 1    4 O   -1-1 1    4 O    1-1 1
                                     4 O   -1 1 1    3 O   -1 0 0    3 O    0-1 0
                                     3 O    1-1 0    3 O   -1 1 0    3 O    2 0 0
                                     3 O    0 2 0    3 O    2 1 0    3 O    1 2 0
   2 NI  24     5.0998     9.6373    2 NI  -1 0-1    2 NI   1 0 1    2 NI  -1 0 1
                                     2 NI   1 0-1    2 NI   0-1-1    2 NI   0 1 1
                                     2 NI   0-1 1    2 NI   0 1-1    1 NI  -1 0 0
                                     1 NI   0-1 0    1 NI  -1 1 0    1 NI   1-1 0
                                     1 NI  -1 0 1    1 NI   0-1 1    1 NI   2 0 0
                                     1 NI   1-1 1    1 NI  -1 1 1    1 NI   0 2 0
                                     1 NI   2 1 0    1 NI   1 2 0    1 NI   2 0 1
                                     1 NI   0 2 1    1 NI   2 1 1    1 NI   1 2 1

   3 O    6     2.0820     3.9344    1 NI   0 0 0    1 NI   0 0 1    2 NI   0 0 0
                                     2 NI  -1 0 0    2 NI   0-1 0    2 NI  -1-1 0
   3 O   12     2.9444     5.5641    4 O    0 0 0    4 O   -1 0 0    4 O    0-1 0
                                     4 O   -1-1 0    4 O    0 0 1    4 O   -1 0 1
                                     4 O    0-1 1    4 O   -1-1 1    3 O   -1 0 0
                                     3 O    1 0 0    3 O    0-1 0    3 O    0 1 0
   3 O    8     3.6061     6.8146    1 NI  -1 0 0    1 NI   1 0 0    1 NI   0-1 0
                                     1 NI   0 1 0    1 NI   1 0 1    1 NI  -1 0 1
                                     1 NI   0 1 1    1 NI   0-1 1
   3 O    6     4.1640     7.8688    3 O    0 0-1    3 O    0 0 1    3 O   -1-1 0
                                     3 O    1 1 0    3 O   -1 1 0    3 O    1-1 0
   3 O   24     4.6555     8.7976    2 NI   0 0-1    2 NI   0 0 1    2 NI  -1 0-1
                                     2 NI  -1 0 1    2 NI   0-1-1    2 NI   0-1 1
                                     2 NI  -1-1-1    2 NI  -1-1 1    1 NI  -1-1 0
                                     1 NI   1 1 0    1 NI  -1 1 0    1 NI   1-1 0
                                     1 NI   1 1 1    1 NI  -1-1 1    1 NI   1-1 1
                                     1 NI  -1 1 1    2 NI   1 0 0    2 NI   0 1 0
                                     2 NI  -1 1 0    2 NI   1-1 0    2 NI  -2 0 0
                                     2 NI   0-2 0    2 NI  -2-1 0    2 NI  -1-2 0
   3 O   24     5.0998     9.6373    3 O   -1 0-1    3 O    1 0 1    3 O   -1 0 1
                                     3 O    1 0-1    3 O    0-1-1    3 O    0 1 1
                                     3 O    0-1 1    3 O    0 1-1    4 O    1 0 0
                                     4 O    0 1 0    4 O    1-1 0    4 O   -1 1 0
                                     4 O    1 0 1    4 O    0 1 1    4 O   -2 0 0
                                     4 O    1-1 1    4 O   -1 1 1    4 O    0-2 0
                                     4 O   -2-1 0    4 O   -1-2 0    4 O   -2 0 1
                                     4 O    0-2 1    4 O   -2-1 1    4 O   -1-2 1

   4 O    6     2.0820     3.9344    2 NI   0 0 0    2 NI   0 0-1    1 NI   0 0 0
                                     1 NI   1 0 0    1 NI   0 1 0    1 NI   1 1 0
   4 O   12     2.9444     5.5641    3 O    0 0 0    3 O    1 0 0    3 O    0 1 0
                                     3 O    1 1 0    3 O    0 0-1    3 O    1 0-1
                                     3 O    0 1-1    3 O    1 1-1    4 O   -1 0 0
                                     4 O    1 0 0    4 O    0-1 0    4 O    0 1 0
   4 O    8     3.6061     6.8146    2 NI   1 0 0    2 NI  -1 0 0    2 NI   0 1 0
                                     2 NI   0-1 0    2 NI  -1 0-1    2 NI   1 0-1
                                     2 NI   0-1-1    2 NI   0 1-1
   4 O    6     4.1640     7.8688    4 O    0 0-1    4 O    0 0 1    4 O   -1-1 0
                                     4 O    1 1 0    4 O   -1 1 0    4 O    1-1 0
   4 O   24     4.6555     8.7976    1 NI   0 0 1    1 NI   0 0-1    1 NI   1 0 1
                                     1 NI   1 0-1    1 NI   0 1 1    1 NI   0 1-1
                                     1 NI   1 1 1    1 NI   1 1-1    2 NI   1 1 0
                                     2 NI  -1-1 0    2 NI   1-1 0    2 NI  -1 1 0
                                     2 NI  -1-1-1    2 NI   1 1-1    2 NI  -1 1-1
                                     2 NI   1-1-1    1 NI  -1 0 0    1 NI   0-1 0
                                     1 NI   1-1 0    1 NI  -1 1 0    1 NI   2 0 0
                                     1 NI   0 2 0    1 NI   2 1 0    1 NI   1 2 0
   4 O   24     5.0998     9.6373    4 O   -1 0-1    4 O    1 0 1    4 O   -1 0 1
                                     4 O    1 0-1    4 O    0-1-1    4 O    0 1 1
                                     4 O    0-1 1    4 O    0 1-1    3 O   -1 0 0
                                     3 O    0-1 0    3 O   -1 1 0    3 O    1-1 0
                                     3 O   -1 0-1    3 O    0-1-1    3 O    2 0 0
                                     3 O   -1 1-1    3 O    1-1-1    3 O    0 2 0
                                     3 O    2 1 0    3 O    1 2 0    3 O    2 0-1
                                     3 O    0 2-1    3 O    2 1-1    3 O    1 2-1


 THERE ARE NO SYMMETRY ALLOWED DIRECTIONS
 TTTTTTTTTTTTTTTTTTTTTTTTTTTTTT SYMM        TELAPSE        0.03 TCPU        0.02
 TTTTTTTTTTTTTTTTTTTTTTTTTTTTTT INT_SCREEN  TELAPSE        0.03 TCPU        0.02
 INFORMATION **** EXCBUF **** EXCH. BIPO BUFFER: WORDS USED =      334890
 TTTTTTTTTTTTTTTTTTTTTTTTTTTTTT INT_CALC    TELAPSE        0.05 TCPU        0.04
 EEEEEEEEEE INT_CALC TERMINATION  DATE 07 07 2019 TIME 22:27:45.0

 *******************************************************************************
 NiO Bulk with AFM spin                                                          
 CRYSTAL - SCF - TYPE OF CALCULATION :  UNRESTRICTED OPEN SHELL
 *******************************************************************************

 CAPPA:IS1  8;IS2  8;IS3  8; K PTS MONK NET  75; SYMMOPS:K SPACE  16;G SPACE  16

 TTTTTTTTTTTTTTTTTTTTTTTTTTTTTT SDIK        TELAPSE        0.08 TCPU        0.07

 AAAAAAAAAAAAAAAAAAAAAAAAAAAAAAAAAAAAAAAAAAAAAAAAAAAAAAAAAAAAAAAAAAAAAAAAAAAAAAA
         ATOMIC WAVEFUNCTION(S)


 NUCLEAR CHARGE 28.0  SYMMETRY SPECIES            S    P    D
 N. ELECTRONS   28.0  NUMBER OF PRIMITIVE GTOS   12    9    3
                      NUMBER OF CONTRACTED GTOS   4    3    1
                      NUMBER OF CLOSED SHELLS     4    2    0
                      OPEN SHELL OCCUPATION       0    0    8

  ZNUC SCFIT  TOTAL HF ENERGY   KINETIC ENERGY   VIRIAL THEOREM ACCURACY
  28.0   5   -1.489729346E+03  1.493406783E+03 -1.997537552E+00  5.6E-07

 NUCLEAR CHARGE  8.0  SYMMETRY SPECIES            S    P
 N. ELECTRONS    8.0  NUMBER OF PRIMITIVE GTOS    6    3
                      NUMBER OF CONTRACTED GTOS   2    1
                      NUMBER OF CLOSED SHELLS     2    0
                      OPEN SHELL OCCUPATION       0    4

  ZNUC SCFIT  TOTAL HF ENERGY   KINETIC ENERGY   VIRIAL THEOREM ACCURACY
   8.0   1   -7.380415026E+01  7.344496710E+01 -2.004890507E+00  0.0E+00

 AAAAAAAAAAAAAAAAAAAAAAAAAAAAAAAAAAAAAAAAAAAAAAAAAAAAAAAAAAAAAAAAAAAAAAAAAAAAAAA

 CHARGE NORMALIZATION FACTOR   1.00000000
 TOTAL ATOMIC CHARGES:
  28.0000000  28.0000000   8.0000000   8.0000000
 SUMMED SPIN DENSITY           0.00000000
 TOTAL ATOMIC SPINS  :
   2.0000000  -2.0000000   0.0000000   0.0000000
 TTTTTTTTTTTTTTTTTTTTTTTTTTTTTT MOQGAD      TELAPSE        0.10 TCPU        0.09
 TTTTTTTTTTTTTTTTTTTTTTTTTTTTTT SHELLXN     TELAPSE       13.03 TCPU       12.32
 TTTTTTTTTTTTTTTTTTTTTTTTTTTTTT MONMO3      TELAPSE       13.10 TCPU       12.39
 CYC   0 ETOT(AU) -3.127033914842E+03 DETOT -3.13E+03 tst  0.00E+00 PX  1.00E+00
 TTTTTTTTTTTTTTTTTTTTTTTTTTTTTT DIIS        TELAPSE       13.14 TCPU       12.42
 TTTTTTTTTTTTTTTTTTTTTTTTTTTTTT FDIK        TELAPSE       13.24 TCPU       12.52
 SPIN LOCKING: NO ENERGY GAP COMPUTED
 TTTTTTTTTTTTTTTTTTTTTTTTTTTTTT PDIG        TELAPSE       13.41 TCPU       12.68
 CHARGE NORMALIZATION FACTOR   0.99989150
 TOTAL ATOMIC CHARGES:
  26.5371819  26.5395407   9.4622654   9.4610120
 SUMMED SPIN DENSITY          -0.00781165
 TOTAL ATOMIC SPINS  :
   5.0037637  -5.0093687  -0.0142541   0.0120475
 TTTTTTTTTTTTTTTTTTTTTTTTTTTTTT MOQGAD      TELAPSE       13.43 TCPU       12.70
 TTTTTTTTTTTTTTTTTTTTTTTTTTTTTT SHELLXN     TELAPSE       27.82 TCPU       25.91
 TTTTTTTTTTTTTTTTTTTTTTTTTTTTTT MONMO3      TELAPSE       27.90 TCPU       25.98
 CYC   1 ETOT(AU) -3.124831994887E+03 DETOT  2.20E+00 tst  0.00E+00 PX  1.00E+00
 TTTTTTTTTTTTTTTTTTTTTTTTTTTTTT DIIS        TELAPSE       27.95 TCPU       26.04
 DIIS TEST: 0.44298E+00 AT SCF   CYCLE   1 - MIX   50 %
 TTTTTTTTTTTTTTTTTTTTTTTTTTTTTT FDIK        TELAPSE       28.01 TCPU       26.10
 SPIN LOCKING: NO ENERGY GAP COMPUTED
 TTTTTTTTTTTTTTTTTTTTTTTTTTTTTT PDIG        TELAPSE       28.20 TCPU       26.28
 CHARGE NORMALIZATION FACTOR   0.99967459
 TOTAL ATOMIC CHARGES:
  28.1815033  28.1855358   7.8150937   7.8178672
 SUMMED SPIN DENSITY          -0.00000000
 TOTAL ATOMIC SPINS  :
   2.5347604  -2.5331306  -0.0279054   0.0262756
 TTTTTTTTTTTTTTTTTTTTTTTTTTTTTT MOQGAD      TELAPSE       28.22 TCPU       26.30
 TTTTTTTTTTTTTTTTTTTTTTTTTTTTTT SHELLXN     TELAPSE       48.57 TCPU       42.66
 TTTTTTTTTTTTTTTTTTTTTTTTTTTTTT MONMO3      TELAPSE       48.79 TCPU       42.77
 CYC   2 ETOT(AU) -3.126469367003E+03 DETOT -1.64E+00 tst  2.22E+00 PX  2.72E+00
 TTTTTTTTTTTTTTTTTTTTTTTTTTTTTT DIIS        TELAPSE       48.94 TCPU       42.86
 DIIS TEST: 0.90647E-01 AT SCF   CYCLE   2 - DIIS ACTIVE - HISTORY:     2 CYCLES
 TTTTTTTTTTTTTTTTTTTTTTTTTTTTTT FDIK        TELAPSE       49.05 TCPU       42.96
 SPIN LOCKING: NO ENERGY GAP COMPUTED
 TTTTTTTTTTTTTTTTTTTTTTTTTTTTTT PDIG        TELAPSE       49.47 TCPU       43.26
 CHARGE NORMALIZATION FACTOR   1.00000000
 TOTAL ATOMIC CHARGES:
  27.5989198  27.5982085   8.4021762   8.4006955
 SUMMED SPIN DENSITY           0.00000000
 TOTAL ATOMIC SPINS  :
   3.1098148  -3.1089504  -0.0184607   0.0175963
 TTTTTTTTTTTTTTTTTTTTTTTTTTTTTT MOQGAD      TELAPSE       49.51 TCPU       43.29
 TTTTTTTTTTTTTTTTTTTTTTTTTTTTTT SHELLXN     TELAPSE       66.68 TCPU       58.00
 TTTTTTTTTTTTTTTTTTTTTTTTTTTTTT MONMO3      TELAPSE       66.75 TCPU       58.07
 CYC   3 ETOT(AU) -3.128185089364E+03 DETOT -1.72E+00 tst  4.58E+00 PX  3.11E-01
 TTTTTTTTTTTTTTTTTTTTTTTTTTTTTT DIIS        TELAPSE       66.82 TCPU       58.13
 DIIS TEST: 0.16745E-02 AT SCF   CYCLE   3 - DIIS ACTIVE - HISTORY:     3 CYCLES
 TTTTTTTTTTTTTTTTTTTTTTTTTTTTTT FDIK        TELAPSE       66.88 TCPU       58.19
 SPIN LOCKING: NO ENERGY GAP COMPUTED
 TTTTTTTTTTTTTTTTTTTTTTTTTTTTTT PDIG        TELAPSE       67.08 TCPU       58.38
 CHARGE NORMALIZATION FACTOR   1.00000000
 TOTAL ATOMIC CHARGES:
  27.6313749  27.6293962   8.3689677   8.3702612
 SUMMED SPIN DENSITY          -0.00000000
 TOTAL ATOMIC SPINS  :
   3.1312996  -3.1307751  -0.0101398   0.0096152
 TTTTTTTTTTTTTTTTTTTTTTTTTTTTTT MOQGAD      TELAPSE       67.10 TCPU       58.40
 TTTTTTTTTTTTTTTTTTTTTTTTTTTTTT SHELLXN     TELAPSE       80.56 TCPU       71.42
 TTTTTTTTTTTTTTTTTTTTTTTTTTTTTT MONMO3      TELAPSE       80.63 TCPU       71.49
 CYC   4 ETOT(AU) -3.128257292059E+03 DETOT -7.22E-02 tst  5.92E-02 PX  1.09E-01
 TTTTTTTTTTTTTTTTTTTTTTTTTTTTTT DIIS        TELAPSE       80.69 TCPU       71.55
 DIIS TEST: 0.39455E-03 AT SCF   CYCLE   4 - DIIS ACTIVE - HISTORY:     4 CYCLES
 TTTTTTTTTTTTTTTTTTTTTTTTTTTTTT FDIK        TELAPSE       80.74 TCPU       71.60
 SPIN LOCKING: NO ENERGY GAP COMPUTED
 TTTTTTTTTTTTTTTTTTTTTTTTTTTTTT PDIG        TELAPSE       80.92 TCPU       71.78
 CHARGE NORMALIZATION FACTOR   1.00000000
 TOTAL ATOMIC CHARGES:
  27.6015899  27.6017678   8.3990549   8.3975874
 SUMMED SPIN DENSITY          -0.00000000
 TOTAL ATOMIC SPINS  :
   3.1384098  -3.1380433  -0.0144129   0.0140463
 TTTTTTTTTTTTTTTTTTTTTTTTTTTTTT MOQGAD      TELAPSE       80.94 TCPU       71.79
 TTTTTTTTTTTTTTTTTTTTTTTTTTTTTT SHELLXN     TELAPSE       95.04 TCPU       84.96
 TTTTTTTTTTTTTTTTTTTTTTTTTTTTTT MONMO3      TELAPSE       95.11 TCPU       85.03
 CYC   5 ETOT(AU) -3.128273132007E+03 DETOT -1.58E-02 tst  1.13E-02 PX  9.39E-02
 TTTTTTTTTTTTTTTTTTTTTTTTTTTTTT DIIS        TELAPSE       95.16 TCPU       85.08
 DIIS TEST: 0.10488E-03 AT SCF   CYCLE   5 - DIIS ACTIVE - HISTORY:     5 CYCLES
 TTTTTTTTTTTTTTTTTTTTTTTTTTTTTT FDIK        TELAPSE       95.22 TCPU       85.13
 SPIN LOCKING: NO ENERGY GAP COMPUTED
 TTTTTTTTTTTTTTTTTTTTTTTTTTTTTT PDIG        TELAPSE       95.39 TCPU       85.30
 CHARGE NORMALIZATION FACTOR   1.00000000
 TOTAL ATOMIC CHARGES:
  27.6045935  27.6039932   8.3950325   8.3963808
 SUMMED SPIN DENSITY           0.00000000
 TOTAL ATOMIC SPINS  :
   3.1181643  -3.1179470  -0.0276900   0.0274727
 TTTTTTTTTTTTTTTTTTTTTTTTTTTTTT MOQGAD      TELAPSE       95.41 TCPU       85.32
 TTTTTTTTTTTTTTTTTTTTTTTTTTTTTT SHELLXN     TELAPSE      109.70 TCPU       98.57
 TTTTTTTTTTTTTTTTTTTTTTTTTTTTTT MONMO3      TELAPSE      109.77 TCPU       98.64
 CYC   6 ETOT(AU) -3.128279878744E+03 DETOT -6.75E-03 tst  2.79E-03 PX  7.42E-02
 TTTTTTTTTTTTTTTTTTTTTTTTTTTTTT DIIS        TELAPSE      109.82 TCPU       98.69
 DIIS TEST: 0.72788E-04 AT SCF   CYCLE   6 - DIIS ACTIVE - HISTORY:     6 CYCLES
 TTTTTTTTTTTTTTTTTTTTTTTTTTTTTT FDIK        TELAPSE      109.88 TCPU       98.75
 SPIN LOCKING: NO ENERGY GAP COMPUTED
 TTTTTTTTTTTTTTTTTTTTTTTTTTTTTT PDIG        TELAPSE      110.05 TCPU       98.91
 CHARGE NORMALIZATION FACTOR   1.00000000
 TOTAL ATOMIC CHARGES:
  27.6017695  27.6020067   8.3987105   8.3975132
 SUMMED SPIN DENSITY          -0.00000000
 TOTAL ATOMIC SPINS  :
   3.0993770  -3.0992244  -0.0417715   0.0416189
 TTTTTTTTTTTTTTTTTTTTTTTTTTTTTT MOQGAD      TELAPSE      110.07 TCPU       98.93
 TTTTTTTTTTTTTTTTTTTTTTTTTTTTTT SHELLXN     TELAPSE      132.43 TCPU      115.64
 TTTTTTTTTTTTTTTTTTTTTTTTTTTTTT MONMO3      TELAPSE      132.55 TCPU      115.74
 CYC   7 ETOT(AU) -3.128281522505E+03 DETOT -1.64E-03 tst  4.68E-03 PX  3.62E-02
 TTTTTTTTTTTTTTTTTTTTTTTTTTTTTT DIIS        TELAPSE      132.64 TCPU      115.82
 DIIS TEST: 0.67406E-04 AT SCF   CYCLE   7 - DIIS ACTIVE - HISTORY:     7 CYCLES
 TTTTTTTTTTTTTTTTTTTTTTTTTTTTTT FDIK        TELAPSE      132.89 TCPU      115.91
 SPIN LOCKING: NO ENERGY GAP COMPUTED
 TTTTTTTTTTTTTTTTTTTTTTTTTTTTTT PDIG        TELAPSE      133.27 TCPU      116.20
 CHARGE NORMALIZATION FACTOR   1.00000000
 TOTAL ATOMIC CHARGES:
  27.6053535  27.6042574   8.3935176   8.3968715
 SUMMED SPIN DENSITY          -0.00000000
 TOTAL ATOMIC SPINS  :
   3.0993339  -3.0992133  -0.0421517   0.0420311
 TTTTTTTTTTTTTTTTTTTTTTTTTTTTTT MOQGAD      TELAPSE      133.31 TCPU      116.23
 TTTTTTTTTTTTTTTTTTTTTTTTTTTTTT SHELLXN     TELAPSE      150.99 TCPU      131.56
 TTTTTTTTTTTTTTTTTTTTTTTTTTTTTT MONMO3      TELAPSE      151.05 TCPU      131.62
 CYC   8 ETOT(AU) -3.128281434901E+03 DETOT  8.76E-05 tst  5.04E-04 PX  3.46E-03
 TTTTTTTTTTTTTTTTTTTTTTTTTTTTTT DIIS        TELAPSE      151.10 TCPU      131.68
 DIIS TEST: 0.30758E-04 AT SCF   CYCLE   8 - DIIS ACTIVE - HISTORY:     8 CYCLES
 TTTTTTTTTTTTTTTTTTTTTTTTTTTTTT FDIK        TELAPSE      151.16 TCPU      131.73
 SPIN LOCKING: NO ENERGY GAP COMPUTED
 TTTTTTTTTTTTTTTTTTTTTTTTTTTTTT PDIG        TELAPSE      151.33 TCPU      131.90
 CHARGE NORMALIZATION FACTOR   1.00000000
 TOTAL ATOMIC CHARGES:
  27.6004973  27.6017634   8.4009624   8.3967769
 SUMMED SPIN DENSITY           0.00000000
 TOTAL ATOMIC SPINS  :
   3.0744171  -3.0743742  -0.0603763   0.0603333
 TTTTTTTTTTTTTTTTTTTTTTTTTTTTTT MOQGAD      TELAPSE      151.35 TCPU      131.92
 TTTTTTTTTTTTTTTTTTTTTTTTTTTTTT SHELLXN     TELAPSE      166.06 TCPU      145.51
 TTTTTTTTTTTTTTTTTTTTTTTTTTTTTT MONMO3      TELAPSE      166.13 TCPU      145.57
 CYC   9 ETOT(AU) -3.128282089556E+03 DETOT -6.55E-04 tst  1.45E-03 PX  3.11E-02
 TTTTTTTTTTTTTTTTTTTTTTTTTTTTTT DIIS        TELAPSE      166.20 TCPU      145.64
 DIIS TEST: 0.60134E-05 AT SCF   CYCLE   9 - DIIS ACTIVE - HISTORY:     9 CYCLES
 TTTTTTTTTTTTTTTTTTTTTTTTTTTTTT FDIK        TELAPSE      166.25 TCPU      145.69
 SPIN LOCKING: NO ENERGY GAP COMPUTED
 TTTTTTTTTTTTTTTTTTTTTTTTTTTTTT PDIG        TELAPSE      166.43 TCPU      145.86
 CHARGE NORMALIZATION FACTOR   1.00000000
 TOTAL ATOMIC CHARGES:
  27.6038191  27.6023982   8.3944158   8.3993669
 SUMMED SPIN DENSITY          -0.00000000
 TOTAL ATOMIC SPINS  :
   3.0627124  -3.0626948  -0.0675862   0.0675686
 TTTTTTTTTTTTTTTTTTTTTTTTTTTTTT MOQGAD      TELAPSE      166.46 TCPU      145.88
 TTTTTTTTTTTTTTTTTTTTTTTTTTTTTT SHELLXN     TELAPSE      179.35 TCPU      158.29
 +++ ENERGIES IN A.U. +++
 ::: EXT EL-POLE                                  -2.6766310412912E+03
 ::: EXT EL-SPHEROPOLE                             2.2640646185887E+01
 ::: BIELET ZONE E-E                               3.3683613109955E+03
 ::: TOTAL E-E                                     7.1437091589015E+02
 ::: TOTAL E-N + N-E                              -6.4051414879028E+03
 ::: TOTAL N-N                                    -5.5613975040652E+02
 ::: KINETIC ENERGY                                3.1186281540831E+03
 ::: TOTAL   ENERGY                               -3.1282821683361E+03
 ::: VIRIAL COEFFICIENT                            9.9845459375039E-01
 TTTTTTTTTTTTTTTTTTTTTTTTTTTTTT MONMO3      TELAPSE      179.44 TCPU      158.37
 CYC  10 ETOT(AU) -3.128282168336E+03 DETOT -7.88E-05 tst  3.11E-04 PX  3.11E-02

 == SCF ENDED - TOO MANY CYCLES            E(AU) -3.1282821683361E+03 CYCLES  10

 TOTAL ENERGY(HF)(AU)(  10) -3.1282821683361E+03 DE-7.9E-05 tst 3.1E-04 PX 3.1E-02

 NEIGHBORS OF THE NON-EQUIVALENT ATOMS

 N = NUMBER OF NEIGHBORS AT DISTANCE R
    ATOM  N     R/ANG      R/AU   NEIGHBORS (ATOM LABELS AND CELL INDICES)
   1 NI   6     2.0820     3.9344    3 O    0 0 0    3 O    0 0-1    4 O    0 0 0
                                     4 O   -1 0 0    4 O    0-1 0    4 O   -1-1 0
   1 NI  12     2.9444     5.5641    2 NI   0 0 0    2 NI  -1 0 0    2 NI   0-1 0
                                     2 NI  -1-1 0    2 NI   0 0-1    2 NI  -1 0-1
                                     2 NI   0-1-1    2 NI  -1-1-1    1 NI  -1 0 0
                                     1 NI   1 0 0    1 NI   0-1 0    1 NI   0 1 0
   1 NI   8     3.6061     6.8146    3 O    1 0 0    3 O   -1 0 0    3 O    0 1 0
                                     3 O    0-1 0    3 O   -1 0-1    3 O    1 0-1
                                     3 O    0-1-1    3 O    0 1-1
   1 NI   6     4.1640     7.8688    1 NI   0 0-1    1 NI   0 0 1    1 NI  -1-1 0
                                     1 NI   1 1 0    1 NI  -1 1 0    1 NI   1-1 0
   1 NI  24     4.6555     8.7976    4 O    0 0-1    4 O    0 0 1    4 O   -1 0-1
                                     4 O   -1 0 1    4 O    0-1-1    4 O    0-1 1
                                     4 O   -1-1-1    4 O   -1-1 1    3 O    1 1 0
                                     3 O   -1-1 0    3 O    1-1 0    3 O   -1 1 0
                                     3 O   -1-1-1    3 O    1 1-1    3 O   -1 1-1
                                     3 O    1-1-1    4 O    1 0 0    4 O    0 1 0
                                     4 O   -1 1 0    4 O    1-1 0    4 O   -2 0 0
                                     4 O    0-2 0    4 O   -2-1 0    4 O   -1-2 0
   1 NI  24     5.0998     9.6373    1 NI  -1 0-1    1 NI   1 0 1    1 NI  -1 0 1
                                     1 NI   1 0-1    1 NI   0-1-1    1 NI   0 1 1
                                     1 NI   0-1 1    1 NI   0 1-1    2 NI   1 0 0
                                     2 NI   0 1 0    2 NI   1-1 0    2 NI  -1 1 0
                                     2 NI   1 0-1    2 NI   0 1-1    2 NI  -2 0 0
                                     2 NI  -1 1-1    2 NI   1-1-1    2 NI   0-2 0
                                     2 NI  -2-1 0    2 NI  -1-2 0    2 NI  -2 0-1
                                     2 NI   0-2-1    2 NI  -2-1-1    2 NI  -1-2-1

   2 NI   6     2.0820     3.9344    4 O    0 0 0    4 O    0 0 1    3 O    0 0 0
                                     3 O    1 0 0    3 O    0 1 0    3 O    1 1 0
   2 NI  12     2.9444     5.5641    1 NI   0 0 0    1 NI   1 0 0    1 NI   0 1 0
                                     1 NI   1 1 0    1 NI   0 0 1    1 NI   1 0 1
                                     1 NI   0 1 1    1 NI   1 1 1    2 NI  -1 0 0
                                     2 NI   1 0 0    2 NI   0-1 0    2 NI   0 1 0
   2 NI   8     3.6061     6.8146    4 O   -1 0 0    4 O    1 0 0    4 O    0-1 0
                                     4 O    0 1 0    4 O    1 0 1    4 O   -1 0 1
                                     4 O    0 1 1    4 O    0-1 1
   2 NI   6     4.1640     7.8688    2 NI   0 0-1    2 NI   0 0 1    2 NI  -1-1 0
                                     2 NI   1 1 0    2 NI  -1 1 0    2 NI   1-1 0
   2 NI  24     4.6555     8.7976    3 O    0 0 1    3 O    0 0-1    3 O    1 0 1
                                     3 O    1 0-1    3 O    0 1 1    3 O    0 1-1
                                     3 O    1 1 1    3 O    1 1-1    4 O   -1-1 0
                                     4 O    1 1 0    4 O   -1 1 0    4 O    1-1 0
                                     4 O    1 1 1    4 O   -1-1 1    4 O    1-1 1
                                     4 O   -1 1 1    3 O   -1 0 0    3 O    0-1 0
                                     3 O    1-1 0    3 O   -1 1 0    3 O    2 0 0
                                     3 O    0 2 0    3 O    2 1 0    3 O    1 2 0
   2 NI  24     5.0998     9.6373    2 NI  -1 0-1    2 NI   1 0 1    2 NI  -1 0 1
                                     2 NI   1 0-1    2 NI   0-1-1    2 NI   0 1 1
                                     2 NI   0-1 1    2 NI   0 1-1    1 NI  -1 0 0
                                     1 NI   0-1 0    1 NI  -1 1 0    1 NI   1-1 0
                                     1 NI  -1 0 1    1 NI   0-1 1    1 NI   2 0 0
                                     1 NI   1-1 1    1 NI  -1 1 1    1 NI   0 2 0
                                     1 NI   2 1 0    1 NI   1 2 0    1 NI   2 0 1
                                     1 NI   0 2 1    1 NI   2 1 1    1 NI   1 2 1

   3 O    6     2.0820     3.9344    1 NI   0 0 0    1 NI   0 0 1    2 NI   0 0 0
                                     2 NI  -1 0 0    2 NI   0-1 0    2 NI  -1-1 0
   3 O   12     2.9444     5.5641    4 O    0 0 0    4 O   -1 0 0    4 O    0-1 0
                                     4 O   -1-1 0    4 O    0 0 1    4 O   -1 0 1
                                     4 O    0-1 1    4 O   -1-1 1    3 O   -1 0 0
                                     3 O    1 0 0    3 O    0-1 0    3 O    0 1 0
   3 O    8     3.6061     6.8146    1 NI  -1 0 0    1 NI   1 0 0    1 NI   0-1 0
                                     1 NI   0 1 0    1 NI   1 0 1    1 NI  -1 0 1
                                     1 NI   0 1 1    1 NI   0-1 1
   3 O    6     4.1640     7.8688    3 O    0 0-1    3 O    0 0 1    3 O   -1-1 0
                                     3 O    1 1 0    3 O   -1 1 0    3 O    1-1 0
   3 O   24     4.6555     8.7976    2 NI   0 0-1    2 NI   0 0 1    2 NI  -1 0-1
                                     2 NI  -1 0 1    2 NI   0-1-1    2 NI   0-1 1
                                     2 NI  -1-1-1    2 NI  -1-1 1    1 NI  -1-1 0
                                     1 NI   1 1 0    1 NI  -1 1 0    1 NI   1-1 0
                                     1 NI   1 1 1    1 NI  -1-1 1    1 NI   1-1 1
                                     1 NI  -1 1 1    2 NI   1 0 0    2 NI   0 1 0
                                     2 NI  -1 1 0    2 NI   1-1 0    2 NI  -2 0 0
                                     2 NI   0-2 0    2 NI  -2-1 0    2 NI  -1-2 0
   3 O   24     5.0998     9.6373    3 O   -1 0-1    3 O    1 0 1    3 O   -1 0 1
                                     3 O    1 0-1    3 O    0-1-1    3 O    0 1 1
                                     3 O    0-1 1    3 O    0 1-1    4 O    1 0 0
                                     4 O    0 1 0    4 O    1-1 0    4 O   -1 1 0
                                     4 O    1 0 1    4 O    0 1 1    4 O   -2 0 0
                                     4 O    1-1 1    4 O   -1 1 1    4 O    0-2 0
                                     4 O   -2-1 0    4 O   -1-2 0    4 O   -2 0 1
                                     4 O    0-2 1    4 O   -2-1 1    4 O   -1-2 1

   4 O    6     2.0820     3.9344    2 NI   0 0 0    2 NI   0 0-1    1 NI   0 0 0
                                     1 NI   1 0 0    1 NI   0 1 0    1 NI   1 1 0
   4 O   12     2.9444     5.5641    3 O    0 0 0    3 O    1 0 0    3 O    0 1 0
                                     3 O    1 1 0    3 O    0 0-1    3 O    1 0-1
                                     3 O    0 1-1    3 O    1 1-1    4 O   -1 0 0
                                     4 O    1 0 0    4 O    0-1 0    4 O    0 1 0
   4 O    8     3.6061     6.8146    2 NI   1 0 0    2 NI  -1 0 0    2 NI   0 1 0
                                     2 NI   0-1 0    2 NI  -1 0-1    2 NI   1 0-1
                                     2 NI   0-1-1    2 NI   0 1-1
   4 O    6     4.1640     7.8688    4 O    0 0-1    4 O    0 0 1    4 O   -1-1 0
                                     4 O    1 1 0    4 O   -1 1 0    4 O    1-1 0
   4 O   24     4.6555     8.7976    1 NI   0 0 1    1 NI   0 0-1    1 NI   1 0 1
                                     1 NI   1 0-1    1 NI   0 1 1    1 NI   0 1-1
                                     1 NI   1 1 1    1 NI   1 1-1    2 NI   1 1 0
                                     2 NI  -1-1 0    2 NI   1-1 0    2 NI  -1 1 0
                                     2 NI  -1-1-1    2 NI   1 1-1    2 NI  -1 1-1
                                     2 NI   1-1-1    1 NI  -1 0 0    1 NI   0-1 0
                                     1 NI   1-1 0    1 NI  -1 1 0    1 NI   2 0 0
                                     1 NI   0 2 0    1 NI   2 1 0    1 NI   1 2 0
   4 O   24     5.0998     9.6373    4 O   -1 0-1    4 O    1 0 1    4 O   -1 0 1
                                     4 O    1 0-1    4 O    0-1-1    4 O    0 1 1
                                     4 O    0-1 1    4 O    0 1-1    3 O   -1 0 0
                                     3 O    0-1 0    3 O   -1 1 0    3 O    1-1 0
                                     3 O   -1 0-1    3 O    0-1-1    3 O    2 0 0
                                     3 O   -1 1-1    3 O    1-1-1    3 O    0 2 0
                                     3 O    2 1 0    3 O    1 2 0    3 O    2 0-1
                                     3 O    0 2-1    3 O    2 1-1    3 O    1 2-1

 TTTTTTTTTTTTTTTTTTTTTTTTTTTTTT AFTER FIRST TELAPSE      179.44 TCPU      158.37
 MMMMMMMMMMMMMMMMMMMMMMMMMMMMMMMMMMMMMMMMMMMMMMMMMMMMMMMMMMMMMMMMMMMMMMMMMMMMMMM
     ALPHA+BETA ELECTRONS
 MULLIKEN POPULATION ANALYSIS - NO. OF ELECTRONS   72.000000

  ATOM    Z CHARGE  A.O. POPULATION

   1 NI  28 27.604  2.000  1.999  1.999  1.999  1.999  1.997  1.972  1.972
                    1.972  1.059  0.523  0.523  0.602  1.003  1.987  1.987
                    0.998  1.013
   2 NI  28 27.602  2.000  1.999  1.999  1.999  1.999  1.997  1.972  1.972
                    1.972  1.059  0.523  0.523  0.601  1.003  1.987  1.987
                    0.998  1.013
   3 O    8  8.394  1.999  1.919  1.506  1.506  1.464
   4 O    8  8.399  1.999  1.920  1.507  1.507  1.466

  ATOM    Z CHARGE  SHELL POPULATION

   1 NI  28 27.604  2.000  7.996  7.912  2.707  6.989
   2 NI  28 27.602  2.000  7.996  7.912  2.706  6.989
   3 O    8  8.394  1.999  6.396
   4 O    8  8.399  1.999  6.401

 OVERLAP POPULATION CONDENSED TO ATOMS FOR FIRST   6 NEIGHBORS

 ATOM A   1 NI   ATOM B     CELL      R(AB)/AU R(AB)/ANG    OVPOP(AB)
                  3 O    (  0  0  0)     3.934     2.082    -0.040
                  2 NI   (  0  0  0)     5.564     2.944     0.018
                  3 O    (  1  0  0)     6.815     3.606    -0.008
                  1 NI   (  0  0 -1)     7.869     4.164     0.025
                  4 O    (  0  0 -1)     8.798     4.655     0.000
                  1 NI   ( -1  0 -1)     9.637     5.100    -0.003

 ATOM A   2 NI   ATOM B     CELL      R(AB)/AU R(AB)/ANG    OVPOP(AB)
                  4 O    (  0  0  0)     3.934     2.082    -0.040
                  1 NI   (  0  0  0)     5.564     2.944     0.018
                  4 O    ( -1  0  0)     6.815     3.606    -0.008
                  2 NI   (  0  0 -1)     7.869     4.164     0.025
                  3 O    (  0  0  1)     8.798     4.655     0.000
                  2 NI   ( -1  0 -1)     9.637     5.100    -0.003

 ATOM A   3 O    ATOM B     CELL      R(AB)/AU R(AB)/ANG    OVPOP(AB)
                  1 NI   (  0  0  0)     3.934     2.082    -0.040
                  4 O    (  0  0  0)     5.564     2.944    -0.001
                  1 NI   ( -1  0  0)     6.815     3.606    -0.008
                  3 O    (  0  0 -1)     7.869     4.164     0.000
                  2 NI   (  0  0 -1)     8.798     4.655     0.000
                  3 O    ( -1  0 -1)     9.637     5.100     0.000

 ATOM A   4 O    ATOM B     CELL      R(AB)/AU R(AB)/ANG    OVPOP(AB)
                  2 NI   (  0  0  0)     3.934     2.082    -0.040
                  3 O    (  0  0  0)     5.564     2.944    -0.001
                  2 NI   (  1  0  0)     6.815     3.606    -0.008
                  4 O    (  0  0 -1)     7.869     4.164     0.000
                  1 NI   (  0  0  1)     8.798     4.655     0.000
                  4 O    ( -1  0 -1)     9.637     5.100     0.000
 TTTTTTTTTTTTTTTTTTTTTTTTTTTTTT AFTER FIRST TELAPSE      179.44 TCPU      158.37
 MMMMMMMMMMMMMMMMMMMMMMMMMMMMMMMMMMMMMMMMMMMMMMMMMMMMMMMMMMMMMMMMMMMMMMMMMMMMMMM
     ALPHA-BETA ELECTRONS
 MULLIKEN POPULATION ANALYSIS - NO. OF ELECTRONS   -0.000000

  ATOM    Z CHARGE  A.O. POPULATION

   1 NI  28  3.063  0.000  0.000 -0.000 -0.000  0.000  0.001  0.004  0.004
                    0.007  0.109 -0.111 -0.111  0.187  0.991  0.003  0.003
                    0.994  0.982
   2 NI  28 -3.063 -0.000 -0.000  0.000  0.000 -0.000 -0.001 -0.004 -0.004
                   -0.007 -0.108  0.110  0.110 -0.187 -0.991 -0.003 -0.003
                   -0.994 -0.982
   3 O    8 -0.068  0.001  0.062 -0.023 -0.023 -0.083
   4 O    8  0.068 -0.001 -0.061  0.023  0.023  0.083

  ATOM    Z CHARGE  SHELL POPULATION

   1 NI  28  3.063  0.000  0.000  0.015  0.075  2.973
   2 NI  28 -3.063 -0.000 -0.000 -0.015 -0.074 -2.973
   3 O    8 -0.068  0.001 -0.068
   4 O    8  0.068 -0.001  0.068

 OVERLAP POPULATION CONDENSED TO ATOMS FOR FIRST   6 NEIGHBORS

 ATOM A   1 NI   ATOM B     CELL      R(AB)/AU R(AB)/ANG    OVPOP(AB)
                  3 O    (  0  0  0)     3.934     2.082    -0.097
                  2 NI   (  0  0  0)     5.564     2.944     0.000
                  3 O    (  1  0  0)     6.815     3.606     0.005
                  1 NI   (  0  0 -1)     7.869     4.164     0.041
                  4 O    (  0  0 -1)     8.798     4.655    -0.000
                  1 NI   ( -1  0 -1)     9.637     5.100    -0.006

 ATOM A   2 NI   ATOM B     CELL      R(AB)/AU R(AB)/ANG    OVPOP(AB)
                  4 O    (  0  0  0)     3.934     2.082     0.097
                  1 NI   (  0  0  0)     5.564     2.944     0.000
                  4 O    ( -1  0  0)     6.815     3.606    -0.005
                  2 NI   (  0  0 -1)     7.869     4.164    -0.041
                  3 O    (  0  0  1)     8.798     4.655     0.000
                  2 NI   ( -1  0 -1)     9.637     5.100     0.006

 ATOM A   3 O    ATOM B     CELL      R(AB)/AU R(AB)/ANG    OVPOP(AB)
                  1 NI   (  0  0  0)     3.934     2.082    -0.097
                  4 O    (  0  0  0)     5.564     2.944     0.000
                  1 NI   ( -1  0  0)     6.815     3.606     0.005
                  3 O    (  0  0 -1)     7.869     4.164    -0.000
                  2 NI   (  0  0 -1)     8.798     4.655     0.000
                  3 O    ( -1  0 -1)     9.637     5.100     0.000

 ATOM A   4 O    ATOM B     CELL      R(AB)/AU R(AB)/ANG    OVPOP(AB)
                  2 NI   (  0  0  0)     3.934     2.082     0.097
                  3 O    (  0  0  0)     5.564     2.944     0.000
                  2 NI   (  1  0  0)     6.815     3.606    -0.005
                  4 O    (  0  0 -1)     7.869     4.164     0.000
                  1 NI   (  0  0  1)     8.798     4.655    -0.000
                  4 O    ( -1  0 -1)     9.637     5.100     0.000
 EIGENVECTORS IN FORTRAN UNIT  8
 TTTTTTTTTTTTTTTTTTTTTTTTTTTTTT END         TELAPSE      179.47 TCPU      158.40
 EEEEEEEEEE TERMINATION  DATE 07 07 2019 TIME 22:30:44.4
