********************************************************************************
*                       GENERAL UTILITY LATTICE PROGRAM                        *
*                                 Julian Gale                                  *
*                       Curtin Institute for Computation                       *
*                           Department of Chemistry                            *
*                    Curtin University, Western Australia                      *
********************************************************************************
* Version = 4.5.3 * Last modified =  19th April 2017                           *
********************************************************************************
*  optimise     - perform optimisation run                                     *
*  conp         - constant pressure calculation                                *
********************************************************************************

  Job Started  at 06:16.13 11th July       2019                               

  Number of CPUs =     1


  Total number of configurations input =   1

********************************************************************************
*  Input for Configuration =   1 : main-geometry                               *
********************************************************************************

  Formula = Fe4S8                                                       

  Number of irreducible atoms/shells =       2


  Total number atoms/shells =      12

  Dimensionality = 3               :  Bulk   


  Cell type = Cubic       

  Number of symmetry operators = 24

--------------------------------------------------------------------------------
  Operator : Rotation matrix                            : Translation vector    
--------------------------------------------------------------------------------
     1          1.000000    0.000000    0.000000            0.000000
                0.000000    1.000000    0.000000            0.000000
                0.000000    0.000000    1.000000            0.000000
     2         -1.000000    0.000000    0.000000            0.000000
                0.000000   -1.000000    0.000000            0.000000
                0.000000    0.000000   -1.000000            0.000000
     3         -1.000000    0.000000    0.000000            0.500000
                0.000000   -1.000000    0.000000            0.000000
                0.000000    0.000000    1.000000            0.500000
     4          1.000000    0.000000    0.000000            0.500000
                0.000000    1.000000    0.000000            0.000000
                0.000000    0.000000   -1.000000            0.500000
     5          1.000000    0.000000    0.000000            0.500000
                0.000000   -1.000000    0.000000            0.500000
                0.000000    0.000000   -1.000000            0.000000
     6         -1.000000    0.000000    0.000000            0.500000
                0.000000    1.000000    0.000000            0.500000
                0.000000    0.000000    1.000000            0.000000
     7         -1.000000    0.000000    0.000000            0.000000
                0.000000    1.000000    0.000000            0.500000
                0.000000    0.000000   -1.000000            0.500000
     8          1.000000    0.000000    0.000000            0.000000
                0.000000   -1.000000    0.000000            0.500000
                0.000000    0.000000    1.000000            0.500000
     9          0.000000    1.000000    0.000000            0.000000
                0.000000    0.000000    1.000000            0.000000
                1.000000    0.000000    0.000000            0.000000
    10          0.000000   -1.000000    0.000000            0.000000
                0.000000    0.000000   -1.000000            0.000000
               -1.000000    0.000000    0.000000            0.000000
    11          0.000000   -1.000000    0.000000            0.500000
                0.000000    0.000000   -1.000000            0.500000
                1.000000    0.000000    0.000000            0.000000
    12          0.000000    1.000000    0.000000            0.500000
                0.000000    0.000000    1.000000            0.500000
               -1.000000    0.000000    0.000000            0.000000
    13          0.000000    1.000000    0.000000            0.000000
                0.000000    0.000000   -1.000000            0.500000
               -1.000000    0.000000    0.000000            0.500000
    14          0.000000   -1.000000    0.000000            0.000000
                0.000000    0.000000    1.000000            0.500000
                1.000000    0.000000    0.000000            0.500000
    15          0.000000   -1.000000    0.000000            0.500000
                0.000000    0.000000    1.000000            0.000000
               -1.000000    0.000000    0.000000            0.500000
    16          0.000000    1.000000    0.000000            0.500000
                0.000000    0.000000   -1.000000            0.000000
                1.000000    0.000000    0.000000            0.500000
    17          0.000000    0.000000    1.000000            0.000000
                1.000000    0.000000    0.000000            0.000000
                0.000000    1.000000    0.000000            0.000000
    18          0.000000    0.000000   -1.000000            0.000000
               -1.000000    0.000000    0.000000            0.000000
                0.000000   -1.000000    0.000000            0.000000
    19          0.000000    0.000000   -1.000000            0.000000
               -1.000000    0.000000    0.000000            0.500000
                0.000000    1.000000    0.000000            0.500000
    20          0.000000    0.000000    1.000000            0.000000
                1.000000    0.000000    0.000000            0.500000
                0.000000   -1.000000    0.000000            0.500000
    21          0.000000    0.000000    1.000000            0.500000
               -1.000000    0.000000    0.000000            0.000000
                0.000000   -1.000000    0.000000            0.500000
    22          0.000000    0.000000   -1.000000            0.500000
                1.000000    0.000000    0.000000            0.000000
                0.000000    1.000000    0.000000            0.500000
    23          0.000000    0.000000   -1.000000            0.500000
                1.000000    0.000000    0.000000            0.500000
                0.000000   -1.000000    0.000000            0.000000
    24          0.000000    0.000000    1.000000            0.500000
               -1.000000    0.000000    0.000000            0.500000
                0.000000    1.000000    0.000000            0.000000
--------------------------------------------------------------------------------

  Cartesian lattice vectors (Angstroms) :

        5.380000    0.000000    0.000000
        0.000000    5.380000    0.000000
        0.000000    0.000000    5.380000

  Cell parameters (Angstroms/Degrees):

  a =       5.3800    alpha =  90.0000
  b =       5.3800    beta  =  90.0000
  c =       5.3800    gamma =  90.0000

  Initial cell volume =         155.720872 Angs**3

  Temperature of configuration =  0.000     K 

  Pressure of configuration =         0.000 GPa 

  Fractional coordinates of asymmetric unit :

--------------------------------------------------------------------------------
   No.  Atomic       x           y          z         Charge      Occupancy
        Label      (Frac)      (Frac)     (Frac)        (e)         (Frac)  
--------------------------------------------------------------------------------
      1 Fe    c    0.000000    0.000000    0.000000     0.00000    1.000000    
      2 S     c    0.338000 *  0.338000    0.338000     0.00000    1.000000    
--------------------------------------------------------------------------------


  Constraints : 

--------------------------------------------------------------------------------
  Constraint no.      Unconstrained     Constrained    Coefficient    Offset
                         Variable         Variable
--------------------------------------------------------------------------------
           1                 2 x             2 y         1.00000      0.0000
           2                 2 x             2 z         1.00000      0.0000
--------------------------------------------------------------------------------


********************************************************************************
*  General input information                                                   *
********************************************************************************

  Species output for all configurations : 

--------------------------------------------------------------------------------
  Species    Type    Atomic    Atomic    Charge       Radii (Angs)     Library
                     Number     Mass       (e)     Cova   Ionic  VDW   Symbol
--------------------------------------------------------------------------------
    Fe       Core       26      55.85   0.000000   1.340  0.000  2.000          
    S        Core       16      32.07   0.000000   1.020  0.000  1.700          
--------------------------------------------------------------------------------


  Lattice summation method               =    Ewald          (3-D)
                                         =    Parry          (2-D)
                                         =    Saunders et al (1-D)
  Accuracy factor for lattice sums       =   12.000


  Time limit = Infinity

  Maximum range for interatomic potentials =    100000.000000 Angstroms

  General interatomic potentials :

--------------------------------------------------------------------------------
Atom  Types   Potential      Parameter       Value         Units   Cutoffs(Ang)
  1     2                                                            Min /  Max 
--------------------------------------------------------------------------------
Fe   c Fe   c Lennard       Lennard-Jones A  1.0000000    eV*Ang^m  0.000 12.000
                            Lennard-Jones B  1.0000000    eV*Ang^n  
                            Exponent m        12          None
                            Exponent n         6          None
--------------------------------------------------------------------------------
S    c Fe   c Lennard       Lennard-Jones A  1.0000000    eV*Ang^m  0.000 12.000
                            Lennard-Jones B  1.0000000    eV*Ang^n  
                            Exponent m        12          None
                            Exponent n         6          None
--------------------------------------------------------------------------------
S    c S    c Lennard       Lennard-Jones A  1.0000000    eV*Ang^m  0.000 12.000
                            Lennard-Jones B  1.0000000    eV*Ang^n  
                            Exponent m        12          None
                            Exponent n         6          None
--------------------------------------------------------------------------------

********************************************************************************
*  Output for configuration   1 : main-geometry                                *
********************************************************************************


  Components of energy : 

--------------------------------------------------------------------------------
  Interatomic potentials     =          -0.32809466 eV    
  Monopole - monopole (real) =           0.00000000 eV    
  Monopole - monopole (recip)=           0.00000000 eV    
  Monopole - monopole (total)=           0.00000000 eV    
--------------------------------------------------------------------------------
  Total lattice energy       =          -0.32809466 eV    
--------------------------------------------------------------------------------
  Total lattice energy       =             -31.6561 kJ/(mole unit cells)
--------------------------------------------------------------------------------


  Number of variables =        7

  Maximum number of calculations  =           100
  Maximum Hessian update interval =            10
  Maximum step size               =   1.000000000
  Maximum parameter tolerance     =   0.000010000
  Maximum function  tolerance     =   0.000010000
  Maximum gradient  tolerance     =   0.001000000
  Maximum gradient  component     =   0.010000000

  Symmetry constrained optimisation

  Cell parameters to be optimised using strains

  Newton-Raphson optimiser to be used

  BFGS hessian update to be used

  Start of bulk optimisation :

  Cycle:      0 Energy:        -0.328095  Gnorm:      0.165131  CPU:    0.012
  ** Hessian calculated **
  ** Trimming pvect back
  ** Cosine =  -0.970061
  Cycle:      1 Energy:        -8.690305  Gnorm:      3.277775  CPU:    0.019
  ** Hess reset due to cos < rst
  ** Cos =  -0.970061
  ** Hessian calculated **
  ** Trimming pvect back
  ** Cosine =  -0.998542
  Cycle:      2 Energy:       -13.201238  Gnorm:      3.141211  CPU:    0.036
  ** Hess reset due to cos < rst
  ** Cos =  -0.998542
  ** Hess reset due to cncadd and drop
  ** Hessian calculated **
  ** Cosine =   0.230524
  Cycle:      3 Energy:       -13.589192  Gnorm:      0.583523  CPU:    0.058
  ** Cosine =  -0.484987
  ** Hess reset due to cos < rst
  ** Cos =  -0.484987
  ** Hessian calculated **
  ** Cosine =   0.072954
  Cycle:      4 Energy:       -13.590423  Gnorm:      0.486225  CPU:    0.077
  ** Cosine =  -0.696510
  ** Hess reset due to cos < rst
  ** Cos =  -0.696510
  ** Hessian calculated **
  ** Cosine =  -0.489950
  Cycle:      5 Energy:       -13.592160  Gnorm:      0.852197  CPU:    0.098
  ** Hess reset due to cos < rst
  ** Cos =  -0.489950
  ** Hessian calculated **
  ** Trimming pvect back
  ** Cosine =   0.059936
  Cycle:      6 Energy:       -13.594571  Gnorm:      0.706026  CPU:    0.119
  ** Cosine =  -0.573427
  ** Hess reset due to cos < rst
  ** Cos =  -0.573427
  ** Hessian calculated **
  ** Cosine =  -0.476590
  Cycle:      7 Energy:       -13.597744  Gnorm:      1.198917  CPU:    0.142
  ** Hess reset due to cos < rst
  ** Cos =  -0.476590
  ** Hessian calculated **
  ** Trimming pvect back
  ** Cosine =   0.041715
  Cycle:      8 Energy:       -13.601974  Gnorm:      0.985504  CPU:    0.162
  ** Cosine =  -0.321101
  ** Hess reset due to cos < rst
  ** Cos =  -0.321101
  ** Hessian calculated **
  ** Cosine =  -0.470942
  Cycle:      9 Energy:       -13.608048  Gnorm:      1.722791  CPU:    0.183
  ** Hess reset due to cos < rst
  ** Cos =  -0.470942
  ** Hessian calculated **
  ** Trimming pvect back
  ** Cosine =   0.040337
  Cycle:     10 Energy:       -13.616599  Gnorm:      1.385738  CPU:    0.204
  ** Cosine =  -0.318345
  ** Hess reset due to cos < rst
  ** Cos =  -0.318345
  ** Hessian calculated **
  ** Cosine =  -0.472226
  Cycle:     11 Energy:       -13.629988  Gnorm:      2.623132  CPU:    0.224
  ** Hess reset due to cos < rst
  ** Cos =  -0.472226
  ** Hessian calculated **
  ** Trimming pvect back
  ** Cosine =   0.040458
  Cycle:     12 Energy:       -13.649648  Gnorm:      2.032166  CPU:    0.247
  ** Cosine =  -0.363203
  ** Hess reset due to cos < rst
  ** Cos =  -0.363203
  ** Hessian calculated **
  ** Cosine =  -0.470348
  Cycle:     13 Energy:       -13.682509  Gnorm:      4.371509  CPU:    0.268
  ** Hess reset due to cos < rst
  ** Cos =  -0.470348
  ** Hessian calculated **
  ** Trimming pvect back
  ** Cosine =   0.028426
  Cycle:     14 Energy:       -13.732715  Gnorm:      3.169181  CPU:    0.291
  ** Cosine =  -0.188848
  ** Hess reset due to cos < rst
  ** Cos =  -0.188848
  ** Hessian calculated **
  ** Cosine =  -0.464423
  Cycle:     15 Energy:       -13.839325  Gnorm:      9.249585  CPU:    0.314
  ** Hess reset due to cos < rst
  ** Cos =  -0.464423
  ** Hessian calculated **
  ** Trimming pvect back
  ** Cosine =  -0.045982
  Cycle:     16 Energy:       -13.986478  Gnorm:      5.898337  CPU:    0.334
  ** Hess reset due to cos < rst
  ** Cos =  -0.045982
  ** Hessian calculated **
  ** Cosine =  -0.381745
  Cycle:     17 Energy:       -14.099725  Gnorm:     11.969372  CPU:    0.355
  ** Hess reset due to cos < rst
  ** Cos =  -0.381745
  ** Hessian calculated **
  ** Trimming pvect back
  ** Cosine =  -0.226201
  Cycle:     18 Energy:       -14.123562  Gnorm:      9.567450  CPU:    0.377
  ** Hess reset due to cos < rst
  ** Cos =  -0.226201
  ** Hess reset due to cncadd and drop
  ** Hessian calculated **
  ** Cosine =  -0.234591
  Cycle:     19 Energy:       -14.125483  Gnorm:      8.979574  CPU:    0.401
  ** Hess reset due to cos < rst
  ** Cos =  -0.234591
  ** Hess reset due to cncadd and drop
  ** Hessian calculated **
  ** Cosine =  -0.252188
  Cycle:     20 Energy:       -14.125652  Gnorm:      9.143186  CPU:    0.425
  ** Hess reset due to cos < rst
  ** Cos =  -0.252188
  ** Hess reset due to cncadd and drop
  ** Hessian calculated **
  ** Cosine =  -0.246887
  Cycle:     21 Energy:       -14.125668  Gnorm:      9.100982  CPU:    0.459
  ** Hess reset due to cos < rst
  ** Cos =  -0.246887
  ** Hess reset due to cncadd and drop
  ** Hessian calculated **
  ** Cosine =  -0.248226
  **** Ftol satisfied in optimiser ****
  **** Xtol satisfied in optimiser ****
  Cycle:     22 Energy:       -14.125668  Gnorm:      9.102373  CPU:    0.488
  ** Hess reset due to cos < rst
  ** Cos =  -0.248226
  ** Hess reset due to cncadd and drop
  ** Hessian calculated **
  ** Cosine =  -0.248181
  ** Trying steepest descent method
  Cycle:     23 Energy:       -14.125668  Gnorm:      9.102373  CPU:    0.518
  ** Hess reset due to lnstop
  ** Hess reset due to cos < rst
  ** Cos =   0.000000
  ** Hess reset due to cncadd and drop
  ** Hessian calculated **
  ** Cosine =  -0.248181


  **** Conditions for a minimum have not been satisfied. However ****
  **** no lower point can be found - treat results with caution  ****
  **** unless gradient norm is small (less than 0.1)             ****


  Final energy =     -14.12566776 eV
  Final Gnorm  =       9.10237253

  Components of energy : 

--------------------------------------------------------------------------------
  Interatomic potentials     =         -14.12566776 eV    
  Monopole - monopole (real) =           0.00000000 eV    
  Monopole - monopole (recip)=           0.00000000 eV    
  Monopole - monopole (total)=           0.00000000 eV    
--------------------------------------------------------------------------------
  Total lattice energy       =         -14.12566776 eV    
--------------------------------------------------------------------------------
  Total lattice energy       =           -1362.9110 kJ/(mole unit cells)
--------------------------------------------------------------------------------

  Final asymmetric unit coordinates :

--------------------------------------------------------------------------------
   No.  Atomic        x           y           z         Radius
        Label       (Frac)      (Frac)      (Frac)       (Angs) 
--------------------------------------------------------------------------------
     1  Fe    c     0.000000    0.000000    0.000000    0.000000
     2  S     c     0.304257    0.304257    0.304257    0.000000
--------------------------------------------------------------------------------

  Final Cartesian lattice vectors (Angstroms) :

        2.502224   -0.000000   -0.000000
       -0.000000    2.502224    0.000000
       -0.000000    0.000000    2.502224


  Final cell parameters and derivatives :

--------------------------------------------------------------------------------
       a            2.502224 Angstrom     dE/de1(xx)    -9.041288 eV/strain
       b            2.502224 Angstrom     dE/de2(yy)    -9.041288 eV/strain
       c            2.502224 Angstrom     dE/de3(zz)    -9.041288 eV/strain
       alpha       90.000000 Degrees      dE/de4(yz)     0.000000 eV/strain
       beta        90.000000 Degrees      dE/de5(xz)    -0.000000 eV/strain
       gamma       90.000000 Degrees      dE/de6(xy)    -0.000000 eV/strain
--------------------------------------------------------------------------------

  Primitive cell volume =            15.666741 Angs**3

  Density of cell =     50.872419 g/cm**3

  Non-primitive cell volume =            15.666741 Angs**3


  Final internal derivatives :

--------------------------------------------------------------------------------
   No.  Atomic          a             b             c           Radius
        Label          (eV)          (eV)          (eV)        (eV/Angs)
--------------------------------------------------------------------------------
      1 Fe    c       0.000000      0.000000      0.000000      0.000000
      2 S     c      61.762217      0.000000      0.000000      0.000000
--------------------------------------------------------------------------------
  Maximum abs        61.762217      0.000000      0.000000      0.000000
--------------------------------------------------------------------------------


  Time to end of optimisation =       0.5440 seconds


  Peak dynamic memory used =       0.55 MB 


  Timing analysis for GULP :

--------------------------------------------------------------------------------
  Task / Subroutine                                          Time (Seconds)
--------------------------------------------------------------------------------
  Calculation of real space energy and derivatives                0.4416
  Calculation of real space energy using symmetry                 0.0874
  Calculation of matrix inversion                                 0.0002
  Symmetry generation of equivalent positions                     0.0007
  Global summation overhead                                       0.0002
--------------------------------------------------------------------------------
  Total CPU time                                                  0.5441
--------------------------------------------------------------------------------


  CIF file written as output.cif                                              


  Job Finished at 06:16.13 11th July       2019                               

