
         
 *******************************************************************************
 *                                                                             *
 *                               CRYSTAL17                                     *
 *                      public : 1.0.1 - Feb 1st, 2017                         *
 *                       HTTP://WWW.CRYSTAL.UNITO.IT                           *
 *                                                                             *
 *                              MAIN AUTHORS                                   *
 *                                                                             *
 *  R. DOVESI(1,11), V.R. SAUNDERS(2), C. ROETTI(1,11), R. ORLANDO(1,11),      *
 *  C.M. ZICOVICH-WILSON(1,3), F. PASCALE(4), B. CIVALLERI(1,11),              *
 *  K. DOLL(5), N.M. HARRISON(2,6), I.J. BUSH(7), Ph. D'ARCO(8),               *
 *  M. LLUNELL(9), M. CAUSA'(10), Y. NOEL(8), L. MASCHIO(1,11), A. ERBA(1,11)  *
 *  M. RE'RAT(14), S. CASASSA(1,11)                                            *
 *                                                                             *
 *        CONTRIBUTIONS TO THE CODE HAVE ALSO BEEN GIVEN BY                    *
 *                                                                             *
 *  M. FERRABONE(1,11), M. DE LA PIERRE(1,11), M. FERRERO(1,11),               *
 *  J. BAIMA(1,11), E. ALBANESE(1,11), M.F. PEINTINGER(12), R. BAST(13),       *
 *  B. KIRTMAN(15), V. LACIVITA(1,11), R. DEMICHELIS(1,16)                     *
 *  G. BRANDEBURG(17), S. SALUSTRO(1,11), G. SANSONE(1,11)                     *
 *  M.T. RUGGIERO(18)                                                          *
 *                                                                             *
 * (1) THEORETICAL CHEMISTRY GROUP - UNIVERSITA' DI TORINO - TORINO (ITALY)    *

 * (2) COMPUTATIONAL SCIENCE & ENGINEERING DEPARTMENT - STFC DARESBURY (UK)    *
 * (3) UNIVERSIDAD AUTONOMA DEL ESTADO DE MORELOS - CUERNAVACA (MEXICO)        *
 * (4) UNIVERSITE' DE LORRAINE - NANCY (FRANCE)                                *
 * (5) UNIVERSITAET STUTTGART- STUTTGART (GERMANY)                             *
 * (6) IMPERIAL COLLEGE - LONDON (UK)                                          *
 * (7) OXFORD E-RESEARCH CENTRE - OXFORD (UK)                                  *
 * (8) UPMC - SORBONNE UNIVERSITES - PARIS (FRANCE)                            *
 * (9) UNIVERSIDAD DE BARCELONA - BARCELONA (SPAIN)                            *
 *(10) UNIVERSITA' DI NAPOLI "FEDERICO II" - NAPOLI (ITALY)                    *
 *(11) NIS - NANOSTRUCTURED INTERFACES AND SURFACES - TORINO (ITALY)           *
 *(12) MPI FUER CHEMISCHE ENERGIEKONVERSION - MUELHEIM AN DER RUHR (GERMANY)   *
 *(13) UNIVERSITY OF TROMSO - TROMSO (NORWAY)                                  *
 *(14) UNIVERSITE' DE PAU ET DES PAYS DE L'ADOUR - PAU (FRANCE)                *
 *(15) UNIVERSITY OF CALIFORNIA SANTA BARBARA - SANTA BARBARA (USA)            *
 *(16) CURTIN UNIVERSITY - PERTH (AUSTRALIA)                                   *
 *(17) UNIVERSITY COLLEGE LONDON - LONDON (UK)                                 *
 *(18) CAMBRIDGE UNIVERSITY - CAMBRIDGE (UK)                                   *
 *                                                                             *
 *******************************************************************************
 EEEEEEEEEE STARTING  DATE 24 09 2019 TIME 15:45:42.5

 *******************************************************************************
 NiO Bulk with AFM spin                                                          
 CRYSTAL - PROPERTIES - TYPE OF CALCULATION :  UNRESTRICTED OPEN SHELL
 *******************************************************************************
 SPIN POLARIZED SYSTEM: SUMMED SPIN DENSITY    0.00000000

 HARTREE-FOCK HAMILTONIAN

 DIRECT LATTICE VECTOR COMPONENTS (ANGSTROM)
         3.07337    0.00000    0.00000
         0.00000    3.07337    0.00000
         0.00000    0.00000    4.49857

 LATTICE PARAMETERS  (ANGSTROM AND DEGREES) - PRIMITIVE CELL
       A          B          C         ALPHA      BETA     GAMMA        VOLUME
    3.07337    3.07337    4.49857     90.0000   90.0000   90.0000      42.49163
 *******************************************************************************
 N. OF ATOMS PER CELL         4 COULOMB OVERLAP TOL          (T1) 10**   -6
 NUMBER OF SHELLS            14 COULOMB PENETRATION TOL      (T2) 10**   -6
 NUMBER OF AO                46 EXCHANGE OVERLAP TOL         (T3) 10**   -6
 N. OF ELECTRONS PER CELL    72 EXCHANGE PSEUDO OVP (F(G))   (T4) 10**   -6
 CORE ELECTRONS PER CELL     40 EXCHANGE PSEUDO OVP (P(G))   (T5) 10**  -12
 N. OF SYMMETRY OPERATORS    16 POLE ORDER IN MONO ZONE                   4
 *******************************************************************************
   ATOM N.AT.  SHELL    X(A)      Y(A)      Z(A)      EXAD       N.ELECT.
 *******************************************************************************
    1   28 NI    5     0.000     0.000     0.000   1.015E+00      27.637
    2   28 NI    5     1.537     1.537     2.249   1.015E+00      27.637
    3    8 O     2     0.000     0.000     2.249   3.804E-01       8.363
    4    8 O     2     1.537     1.537     0.000   3.804E-01       8.363
 *******************************************************************************
 DE(K)                   0.000E+00  ENERGY LEVEL SHIFTING        0.00000
 TOTAL ENERGY -3.1283182939069E+03  CONVERGENCE ON ENER        1.171E-08
 KIN. ENERGY   3.1179614346190E+03  VIR. COEFF.           9.98341916E-01
 N. OF SCF CYCLES                3  FERMI ENERGY              -0.100E+01
 WEIGHT OF F(I) IN F(I+1)      50
 SHRINK. FACT.(MONKH.)     8  8  8  SHRINKING FACTOR(GILAT NET)        8
 NUMBER OF K POINTS IN THE IBZ  75  CELL VOLUME (A.U.)        286.469039
 *******************************************************************************

 GCALCO - MAX INDICES DIRECT LATTICE VECTOR    16    16    11
 NO.OF VECTORS CREATED 6999 STARS  506 RMAX    78.19720 BOHR
 TTTTTTTTTTTTTTTTTTTTTTTTTTTTTT gordsh1     TELAPSE        0.01 TCPU        0.00

 MATRIX SIZE: P(G)   66954, F(G)   11140, P(G) IRR    4983, F(G) IRR    2272
 MAX G-VECTOR INDEX FOR 1- AND 2-ELECTRON INTEGRALS 333


 CAPPA:IS1  8;IS2  8;IS3  8; K PTS MONK NET  75; SYMMOPS:K SPACE  16;G SPACE  16


 CAPPA:IS1 18;IS2 18;IS3 18; K PTS MONK NET 550; SYMMOPS:K SPACE  16;G SPACE  16

 *******************************************************************************
 RESTART WITH NEW K POINTS NET
 *******************************************************************************
 POINTS IN THE IBZ                 550 POINTS(GILAT NET)              3610
 SHRINK FACTORS(MONK.)        18 18 18 SHRINK FACTOR(GILAT)             36
 *******************************************************************************
 *** K POINTS COORDINATES (OBLIQUE COORDINATES IN UNITS OF IS = 18)
   1-R(  0  0  0)   2-C(  1  0  0)   3-C(  2  0  0)   4-C(  3  0  0)
   5-C(  4  0  0)   6-C(  5  0  0)   7-C(  6  0  0)   8-C(  7  0  0)
   9-C(  8  0  0)  10-R(  9  0  0)  11-C(  1  1  0)  12-C(  2  1  0)
  13-C(  3  1  0)  14-C(  4  1  0)  15-C(  5  1  0)  16-C(  6  1  0)
  17-C(  7  1  0)  18-C(  8  1  0)  19-C(  9  1  0)  20-C(  2  2  0)
  21-C(  3  2  0)  22-C(  4  2  0)  23-C(  5  2  0)  24-C(  6  2  0)
  25-C(  7  2  0)  26-C(  8  2  0)  27-C(  9  2  0)  28-C(  3  3  0)
  29-C(  4  3  0)  30-C(  5  3  0)  31-C(  6  3  0)  32-C(  7  3  0)
  33-C(  8  3  0)  34-C(  9  3  0)  35-C(  4  4  0)  36-C(  5  4  0)
  37-C(  6  4  0)  38-C(  7  4  0)  39-C(  8  4  0)  40-C(  9  4  0)
  41-C(  5  5  0)  42-C(  6  5  0)  43-C(  7  5  0)  44-C(  8  5  0)
  45-C(  9  5  0)  46-C(  6  6  0)  47-C(  7  6  0)  48-C(  8  6  0)
  49-C(  9  6  0)  50-C(  7  7  0)  51-C(  8  7  0)  52-C(  9  7  0)
  53-C(  8  8  0)  54-C(  9  8  0)  55-R(  9  9  0)  56-C(  0  0  1)
  57-C(  1  0  1)  58-C(  2  0  1)  59-C(  3  0  1)  60-C(  4  0  1)
  61-C(  5  0  1)  62-C(  6  0  1)  63-C(  7  0  1)  64-C(  8  0  1)
  65-C(  9  0  1)  66-C(  1  1  1)  67-C(  2  1  1)  68-C(  3  1  1)
  69-C(  4  1  1)  70-C(  5  1  1)  71-C(  6  1  1)  72-C(  7  1  1)
  73-C(  8  1  1)  74-C(  9  1  1)  75-C(  2  2  1)  76-C(  3  2  1)
  77-C(  4  2  1)  78-C(  5  2  1)  79-C(  6  2  1)  80-C(  7  2  1)
  81-C(  8  2  1)  82-C(  9  2  1)  83-C(  3  3  1)  84-C(  4  3  1)
  85-C(  5  3  1)  86-C(  6  3  1)  87-C(  7  3  1)  88-C(  8  3  1)
  89-C(  9  3  1)  90-C(  4  4  1)  91-C(  5  4  1)  92-C(  6  4  1)
  93-C(  7  4  1)  94-C(  8  4  1)  95-C(  9  4  1)  96-C(  5  5  1)
  97-C(  6  5  1)  98-C(  7  5  1)  99-C(  8  5  1) 100-C(  9  5  1)
 101-C(  6  6  1) 102-C(  7  6  1) 103-C(  8  6  1) 104-C(  9  6  1)
 105-C(  7  7  1) 106-C(  8  7  1) 107-C(  9  7  1) 108-C(  8  8  1)
 109-C(  9  8  1) 110-C(  9  9  1) 111-C(  0  0  2) 112-C(  1  0  2)
 113-C(  2  0  2) 114-C(  3  0  2) 115-C(  4  0  2) 116-C(  5  0  2)
 117-C(  6  0  2) 118-C(  7  0  2) 119-C(  8  0  2) 120-C(  9  0  2)
 121-C(  1  1  2) 122-C(  2  1  2) 123-C(  3  1  2) 124-C(  4  1  2)
 125-C(  5  1  2) 126-C(  6  1  2) 127-C(  7  1  2) 128-C(  8  1  2)
 129-C(  9  1  2) 130-C(  2  2  2) 131-C(  3  2  2) 132-C(  4  2  2)
 133-C(  5  2  2) 134-C(  6  2  2) 135-C(  7  2  2) 136-C(  8  2  2)
 137-C(  9  2  2) 138-C(  3  3  2) 139-C(  4  3  2) 140-C(  5  3  2)
 141-C(  6  3  2) 142-C(  7  3  2) 143-C(  8  3  2) 144-C(  9  3  2)
 145-C(  4  4  2) 146-C(  5  4  2) 147-C(  6  4  2) 148-C(  7  4  2)
 149-C(  8  4  2) 150-C(  9  4  2) 151-C(  5  5  2) 152-C(  6  5  2)
 153-C(  7  5  2) 154-C(  8  5  2) 155-C(  9  5  2) 156-C(  6  6  2)
 157-C(  7  6  2) 158-C(  8  6  2) 159-C(  9  6  2) 160-C(  7  7  2)
 161-C(  8  7  2) 162-C(  9  7  2) 163-C(  8  8  2) 164-C(  9  8  2)
 165-C(  9  9  2) 166-C(  0  0  3) 167-C(  1  0  3) 168-C(  2  0  3)
 169-C(  3  0  3) 170-C(  4  0  3) 171-C(  5  0  3) 172-C(  6  0  3)
 173-C(  7  0  3) 174-C(  8  0  3) 175-C(  9  0  3) 176-C(  1  1  3)
 177-C(  2  1  3) 178-C(  3  1  3) 179-C(  4  1  3) 180-C(  5  1  3)
 181-C(  6  1  3) 182-C(  7  1  3) 183-C(  8  1  3) 184-C(  9  1  3)
 185-C(  2  2  3) 186-C(  3  2  3) 187-C(  4  2  3) 188-C(  5  2  3)
 189-C(  6  2  3) 190-C(  7  2  3) 191-C(  8  2  3) 192-C(  9  2  3)
 193-C(  3  3  3) 194-C(  4  3  3) 195-C(  5  3  3) 196-C(  6  3  3)
 197-C(  7  3  3) 198-C(  8  3  3) 199-C(  9  3  3) 200-C(  4  4  3)
 201-C(  5  4  3) 202-C(  6  4  3) 203-C(  7  4  3) 204-C(  8  4  3)
 205-C(  9  4  3) 206-C(  5  5  3) 207-C(  6  5  3) 208-C(  7  5  3)
 209-C(  8  5  3) 210-C(  9  5  3) 211-C(  6  6  3) 212-C(  7  6  3)
 213-C(  8  6  3) 214-C(  9  6  3) 215-C(  7  7  3) 216-C(  8  7  3)
 217-C(  9  7  3) 218-C(  8  8  3) 219-C(  9  8  3) 220-C(  9  9  3)
 221-C(  0  0  4) 222-C(  1  0  4) 223-C(  2  0  4) 224-C(  3  0  4)
 225-C(  4  0  4) 226-C(  5  0  4) 227-C(  6  0  4) 228-C(  7  0  4)
 229-C(  8  0  4) 230-C(  9  0  4) 231-C(  1  1  4) 232-C(  2  1  4)
 233-C(  3  1  4) 234-C(  4  1  4) 235-C(  5  1  4) 236-C(  6  1  4)
 237-C(  7  1  4) 238-C(  8  1  4) 239-C(  9  1  4) 240-C(  2  2  4)
 241-C(  3  2  4) 242-C(  4  2  4) 243-C(  5  2  4) 244-C(  6  2  4)
 245-C(  7  2  4) 246-C(  8  2  4) 247-C(  9  2  4) 248-C(  3  3  4)
 249-C(  4  3  4) 250-C(  5  3  4) 251-C(  6  3  4) 252-C(  7  3  4)
 253-C(  8  3  4) 254-C(  9  3  4) 255-C(  4  4  4) 256-C(  5  4  4)
 257-C(  6  4  4) 258-C(  7  4  4) 259-C(  8  4  4) 260-C(  9  4  4)
 261-C(  5  5  4) 262-C(  6  5  4) 263-C(  7  5  4) 264-C(  8  5  4)
 265-C(  9  5  4) 266-C(  6  6  4) 267-C(  7  6  4) 268-C(  8  6  4)
 269-C(  9  6  4) 270-C(  7  7  4) 271-C(  8  7  4) 272-C(  9  7  4)
 273-C(  8  8  4) 274-C(  9  8  4) 275-C(  9  9  4) 276-C(  0  0  5)
 277-C(  1  0  5) 278-C(  2  0  5) 279-C(  3  0  5) 280-C(  4  0  5)
 281-C(  5  0  5) 282-C(  6  0  5) 283-C(  7  0  5) 284-C(  8  0  5)
 285-C(  9  0  5) 286-C(  1  1  5) 287-C(  2  1  5) 288-C(  3  1  5)
 289-C(  4  1  5) 290-C(  5  1  5) 291-C(  6  1  5) 292-C(  7  1  5)
 293-C(  8  1  5) 294-C(  9  1  5) 295-C(  2  2  5) 296-C(  3  2  5)
 297-C(  4  2  5) 298-C(  5  2  5) 299-C(  6  2  5) 300-C(  7  2  5)
 301-C(  8  2  5) 302-C(  9  2  5) 303-C(  3  3  5) 304-C(  4  3  5)
 305-C(  5  3  5) 306-C(  6  3  5) 307-C(  7  3  5) 308-C(  8  3  5)
 309-C(  9  3  5) 310-C(  4  4  5) 311-C(  5  4  5) 312-C(  6  4  5)
 313-C(  7  4  5) 314-C(  8  4  5) 315-C(  9  4  5) 316-C(  5  5  5)
 317-C(  6  5  5) 318-C(  7  5  5) 319-C(  8  5  5) 320-C(  9  5  5)
 321-C(  6  6  5) 322-C(  7  6  5) 323-C(  8  6  5) 324-C(  9  6  5)
 325-C(  7  7  5) 326-C(  8  7  5) 327-C(  9  7  5) 328-C(  8  8  5)
 329-C(  9  8  5) 330-C(  9  9  5) 331-C(  0  0  6) 332-C(  1  0  6)
 333-C(  2  0  6) 334-C(  3  0  6) 335-C(  4  0  6) 336-C(  5  0  6)
 337-C(  6  0  6) 338-C(  7  0  6) 339-C(  8  0  6) 340-C(  9  0  6)
 341-C(  1  1  6) 342-C(  2  1  6) 343-C(  3  1  6) 344-C(  4  1  6)
 345-C(  5  1  6) 346-C(  6  1  6) 347-C(  7  1  6) 348-C(  8  1  6)
 349-C(  9  1  6) 350-C(  2  2  6) 351-C(  3  2  6) 352-C(  4  2  6)
 353-C(  5  2  6) 354-C(  6  2  6) 355-C(  7  2  6) 356-C(  8  2  6)
 357-C(  9  2  6) 358-C(  3  3  6) 359-C(  4  3  6) 360-C(  5  3  6)
 361-C(  6  3  6) 362-C(  7  3  6) 363-C(  8  3  6) 364-C(  9  3  6)
 365-C(  4  4  6) 366-C(  5  4  6) 367-C(  6  4  6) 368-C(  7  4  6)
 369-C(  8  4  6) 370-C(  9  4  6) 371-C(  5  5  6) 372-C(  6  5  6)
 373-C(  7  5  6) 374-C(  8  5  6) 375-C(  9  5  6) 376-C(  6  6  6)
 377-C(  7  6  6) 378-C(  8  6  6) 379-C(  9  6  6) 380-C(  7  7  6)
 381-C(  8  7  6) 382-C(  9  7  6) 383-C(  8  8  6) 384-C(  9  8  6)
 385-C(  9  9  6) 386-C(  0  0  7) 387-C(  1  0  7) 388-C(  2  0  7)
 389-C(  3  0  7) 390-C(  4  0  7) 391-C(  5  0  7) 392-C(  6  0  7)
 393-C(  7  0  7) 394-C(  8  0  7) 395-C(  9  0  7) 396-C(  1  1  7)
 397-C(  2  1  7) 398-C(  3  1  7) 399-C(  4  1  7) 400-C(  5  1  7)
 401-C(  6  1  7) 402-C(  7  1  7) 403-C(  8  1  7) 404-C(  9  1  7)
 405-C(  2  2  7) 406-C(  3  2  7) 407-C(  4  2  7) 408-C(  5  2  7)
 409-C(  6  2  7) 410-C(  7  2  7) 411-C(  8  2  7) 412-C(  9  2  7)
 413-C(  3  3  7) 414-C(  4  3  7) 415-C(  5  3  7) 416-C(  6  3  7)
 417-C(  7  3  7) 418-C(  8  3  7) 419-C(  9  3  7) 420-C(  4  4  7)
 421-C(  5  4  7) 422-C(  6  4  7) 423-C(  7  4  7) 424-C(  8  4  7)
 425-C(  9  4  7) 426-C(  5  5  7) 427-C(  6  5  7) 428-C(  7  5  7)
 429-C(  8  5  7) 430-C(  9  5  7) 431-C(  6  6  7) 432-C(  7  6  7)
 433-C(  8  6  7) 434-C(  9  6  7) 435-C(  7  7  7) 436-C(  8  7  7)
 437-C(  9  7  7) 438-C(  8  8  7) 439-C(  9  8  7) 440-C(  9  9  7)
 441-C(  0  0  8) 442-C(  1  0  8) 443-C(  2  0  8) 444-C(  3  0  8)
 445-C(  4  0  8) 446-C(  5  0  8) 447-C(  6  0  8) 448-C(  7  0  8)
 449-C(  8  0  8) 450-C(  9  0  8) 451-C(  1  1  8) 452-C(  2  1  8)
 453-C(  3  1  8) 454-C(  4  1  8) 455-C(  5  1  8) 456-C(  6  1  8)
 457-C(  7  1  8) 458-C(  8  1  8) 459-C(  9  1  8) 460-C(  2  2  8)
 461-C(  3  2  8) 462-C(  4  2  8) 463-C(  5  2  8) 464-C(  6  2  8)
 465-C(  7  2  8) 466-C(  8  2  8) 467-C(  9  2  8) 468-C(  3  3  8)
 469-C(  4  3  8) 470-C(  5  3  8) 471-C(  6  3  8) 472-C(  7  3  8)
 473-C(  8  3  8) 474-C(  9  3  8) 475-C(  4  4  8) 476-C(  5  4  8)
 477-C(  6  4  8) 478-C(  7  4  8) 479-C(  8  4  8) 480-C(  9  4  8)
 481-C(  5  5  8) 482-C(  6  5  8) 483-C(  7  5  8) 484-C(  8  5  8)
 485-C(  9  5  8) 486-C(  6  6  8) 487-C(  7  6  8) 488-C(  8  6  8)
 489-C(  9  6  8) 490-C(  7  7  8) 491-C(  8  7  8) 492-C(  9  7  8)
 493-C(  8  8  8) 494-C(  9  8  8) 495-C(  9  9  8) 496-R(  0  0  9)
 497-C(  1  0  9) 498-C(  2  0  9) 499-C(  3  0  9) 500-C(  4  0  9)
 501-C(  5  0  9) 502-C(  6  0  9) 503-C(  7  0  9) 504-C(  8  0  9)
 505-R(  9  0  9) 506-C(  1  1  9) 507-C(  2  1  9) 508-C(  3  1  9)
 509-C(  4  1  9) 510-C(  5  1  9) 511-C(  6  1  9) 512-C(  7  1  9)
 513-C(  8  1  9) 514-C(  9  1  9) 515-C(  2  2  9) 516-C(  3  2  9)
 517-C(  4  2  9) 518-C(  5  2  9) 519-C(  6  2  9) 520-C(  7  2  9)
 521-C(  8  2  9) 522-C(  9  2  9) 523-C(  3  3  9) 524-C(  4  3  9)
 525-C(  5  3  9) 526-C(  6  3  9) 527-C(  7  3  9) 528-C(  8  3  9)
 529-C(  9  3  9) 530-C(  4  4  9) 531-C(  5  4  9) 532-C(  6  4  9)
 533-C(  7  4  9) 534-C(  8  4  9) 535-C(  9  4  9) 536-C(  5  5  9)
 537-C(  6  5  9) 538-C(  7  5  9) 539-C(  8  5  9) 540-C(  9  5  9)
 541-C(  6  6  9) 542-C(  7  6  9) 543-C(  8  6  9) 544-C(  9  6  9)
 545-C(  7  7  9) 546-C(  8  7  9) 547-C(  9  7  9) 548-C(  8  8  9)
 549-C(  9  8  9) 550-R(  9  9  9)

 FERMI ENERGY AND DENSITY MATRIX CALCULATION ON COMPUTED EIGENVECTORS
 DENSITY MATRIX AT SCF CYCLE (  3+1)

 POSSIBLY CONDUCTING STATE - EFERMI(AU)  2.5322792E-01 (RES. CHARGE  5.91E-12;IT. 14)

 CORE DENSITY MATRIX CALCULATION
 TTTTTTTTTTTTTTTTTTTTTTTTTTTTTT NEWK        TELAPSE        1.87 TCPU        1.75
 ###############################################################################

 TOTAL AND PROJECTED DENSITY OF STATES - FOURIER LEGENDRE METHOD
 FROM BAND   21 TO BAND   46 ENERGY RANGE -0.11794E+01  0.91694E+00

 ###############################################################################

 NUMBER OF LEGENDRE POLYNOMIALS              14
 NUMBER OF SYMMETRIZED PWS FOR EXPANSION    550
 NUMBER OF K POINTS OF SECONDARY NET       3610
 NUMBER OF PROJECTIONS                        2
 NUMBER OF ENERGY POINTS                    998

 *** PROJECTION   1 ATOMIC ORBITALS    38  39  40  41  43  44  45  46

 *** PROJECTION   2 ATOMIC ORBITALS    14  15  16  17  18  32  33  34  35  36


    ALPHA      ELECTRONS

 BAND     INTEGRATED DOSS PER PROJECTION AND TOTAL
           1         2         T
  21   0.86719   0.00217   1.00000
  22   0.90798   0.00214   1.00000
  23   0.16756   0.65929   1.00000
  24   0.10998   0.80445   1.00000
  25   0.36181   0.32392   1.00000
  26   0.22430   0.60278   1.00000
  27   0.18970   0.68020   1.00000
  28   0.17297   0.70923   1.00000
  29   0.19412   0.70603   1.00000
  30   0.48165   0.33606   1.00000
  31   0.62046   0.18890   1.00000
  32   0.75313   0.10816   1.00000
  33   0.44379   0.45878   1.00000
  34   0.14039   0.85385   1.00000
  35   0.40700   0.54706   1.00000
  36   0.31211   0.00735   1.00000
  37   0.22965   0.00674   1.00000
  38   0.31498   0.00450   1.00000
  39   0.29538   0.01808   1.00000
  40   0.27866   0.02728   1.00000
  41   0.19338   0.05203   1.00000
  42   0.15156   0.09118   1.00000
  43   0.12355   0.11206   1.00000
  44   0.01663   0.89559   1.00000
  45   0.02696   0.82966   1.00000
  46   0.00463   0.97224   1.00000

 *** INTEGRATED DENSITIES IN THE ENERGY INTERVAL PER PROJECTION AND TOTAL
       1         2         T
    7.98955    9.99974   26.00000

 *** ENERGY  PROJECTED DENSITY OF STATES - FULL SCALE =    62.00649 AU

  -1.16891  2       1                                                                                                               
  -1.15003  2                     1                                                                                                 
  -1.13114  2                                                            1                                                          
  -1.11225  2                                                                                      1                                
  -1.09337  2                                                                                                                       
  -1.07448  2                                                                                                                       
  -1.05560  2                                                                                                                       
  -1.03671  2                                                                                                                       
  -1.01782  2                                                                                                                       
  -0.99894  2                                                                                                                       
  -0.98005  2                                                                                                                       
  -0.96117  2                                                                                                                       
  -0.94228  2                                                                                                                       
  -0.92339  2                                                                                                                       
  -0.90451  2                                                                                                                       
  -0.88562  2                                                                                                                       
  -0.86674  2                                                                                                                       
  -0.84785  2                                                                                                                       
  -0.82896  2                                                                                                                       
  -0.81008  2                                                                                                                       
  -0.79119  2                                                                                                                       
  -0.77231  2                                                                                                                       
  -0.75342  2                                                                                                                       
  -0.73453  2                                                                                                                       
  -0.71565  2                                                                                                                       
  -0.69676  2                                                                                                                       
  -0.67788  2                                                                                                                       
  -0.65899  2                                                                                                                       
  -0.64010  2                                                                                                                       
  -0.62122  2                                                                                                                       
  -0.60233  2                                                                                                                       
  -0.58345  2                                                                                                                       
  -0.56456  |  12                                                                                                                   
  -0.54567  |        1          2                                                                                                   
  -0.52679  |                1                                                                                                     2
  -0.50790  |        1        2                                                                                                     
  -0.48902  |                           1  2                                                                                        
  -0.47013  |                 1                                       2                                                             
  -0.45124  |            1                             2                                                                            
  -0.43236  |              1  2                                                                                                     
  -0.41347  |           1                                                                         2                                 
  -0.39459  |               1                                                    2                                                  
  -0.37570  |                2      1                                                                                               
  -0.35681  |     2                       1                                                                                         
  -0.33793  |   2                            1                                                                                      
  -0.31904  |  2                                1                                                                                   
  -0.30016  |    2                               1                                                                                  
  -0.28127  |      2                             1                                                                                  
  -0.26238  |                            1                                                             2                            
  -0.24350  |                              1                                                           2                            
  -0.22461  |     2        1                                                                                                        
  -0.20573  |2      1                                                                                                               
  -0.18684  21                                                                                                                      
  -0.16795  2                                                                                                                       
  -0.14907  2                                                                                                                       
  -0.13018  2                                                                                                                       
  -0.11130  2                                                                                                                       
  -0.09241  2                                                                                                                       
  -0.07352  2                                                                                                                       
  -0.05464  2                                                                                                                       
  -0.03575  21                                                                                                                      
  -0.01687  21                                                                                                                      
   0.00202  21                                                                                                                      
   0.02091  21                                                                                                                      
   0.03979  2 1                                                                                                                     
   0.05868  2  1                                                                                                                    
   0.07756  2  1                                                                                                                    
   0.09645  2  1                                                                                                                    
   0.11534  2  1                                                                                                                    
   0.13422  2 1                                                                                                                     
   0.15311  21                                                                                                                      
   0.17199  2                                                                                                                       
   0.19088  2                                                                                                                       
   0.20977  2                                                                                                                       
   0.22865  2                                                                                                                       
   0.24754  2                                                                                                                       
   0.26643  2 1                                                                                                                     
   0.28531  2 1                                                                                                                     
   0.30420  2 1                                                                                                                     
   0.32308  2  1                                                                                                                    
   0.34197  2  1                                                                                                                    
   0.36086  2  1                                                                                                                    
   0.37974  2 1                                                                                                                     
   0.39863  21                                                                                                                      
   0.41751  21                                                                                                                      
   0.43640  21                                                                                                                      
   0.45529  2  1                                                                                                                    
   0.47417  2           1                                                                                                           
   0.49306  2           1                                                                                                           
   0.51194  2           1                                                                                                           
   0.53083  2         1                                                                                                             
   0.54972  2              1                                                                                                        
   0.56860  2            1                                                                                                          
   0.58749  2      1                                                                                                                
   0.60637  2       1                                                                                                               
   0.62526  |2      1                                                                                                               
   0.64415  2     1                                                                                                                 
   0.66303  2     1                                                                                                                 
   0.68192  |2   1                                                                                                                  
   0.70080  |2   1                                                                                                                  
   0.71969  | 2 1                                                                                                                   
   0.73858  | 12                                                                                                                    
   0.75746  1     2                                                                                                                 
   0.77635  1                                                                2                                                      
   0.79523  |1                                                                                               2                      
   0.81412  |1             2                                                                                                        
   0.83301  1  2                                                                                                                    
   0.85189  2                                                                                                                       
   0.87078  1                                                2                                                                      
   0.88966  1                                                 2                                                                     

 *** ENERGY      TOTAL DENSITY OF STATES - FULL SCALE =    77.55310 AU

  -1.16891  |       T                                                                                                               
  -1.15003  |                    T                                                                                                  
  -1.13114  |                                                      T                                                                
  -1.11225  |                                                                           T                                           
  -1.09337  T                                                                                                                       
  -1.07448  T                                                                                                                       
  -1.05560  T                                                                                                                       
  -1.03671  T                                                                                                                       
  -1.01782  T                                                                                                                       
  -0.99894  T                                                                                                                       
  -0.98005  T                                                                                                                       
  -0.96117  T                                                                                                                       
  -0.94228  T                                                                                                                       
  -0.92339  T                                                                                                                       
  -0.90451  T                                                                                                                       
  -0.88562  T                                                                                                                       
  -0.86674  T                                                                                                                       
  -0.84785  T                                                                                                                       
  -0.82896  T                                                                                                                       
  -0.81008  T                                                                                                                       
  -0.79119  T                                                                                                                       
  -0.77231  T                                                                                                                       
  -0.75342  T                                                                                                                       
  -0.73453  T                                                                                                                       
  -0.71565  T                                                                                                                       
  -0.69676  T                                                                                                                       
  -0.67788  T                                                                                                                       
  -0.65899  T                                                                                                                       
  -0.64010  T                                                                                                                       
  -0.62122  T                                                                                                                       
  -0.60233  T                                                                                                                       
  -0.58345  |T                                                                                                                      
  -0.56456  |         T                                                                                                             
  -0.54567  |                               T                                                                                       
  -0.52679  |                                                                                                                      T
  -0.50790  |                            T                                                                                          
  -0.48902  |                                                                   T                                                   
  -0.47013  |                                                                       T                                               
  -0.45124  |                                                    T                                                                  
  -0.43236  |                                  T                                                                                    
  -0.41347  |                                                                                    T                                  
  -0.39459  |                                                                          T                                            
  -0.37570  |                                         T                                                                             
  -0.35681  |                                     T                                                                                 
  -0.33793  |                                     T                                                                                 
  -0.31904  |                                      T                                                                                
  -0.30016  |                                       T                                                                               
  -0.28127  |                                       T                                                                               
  -0.26238  |                                                                                                  T                    
  -0.24350  |                                                                                                   T                   
  -0.22461  |                  T                                                                                                    
  -0.20573  |       T                                                                                                               
  -0.18684  |T                                                                                                                      
  -0.16795  T                                                                                                                       
  -0.14907  T                                                                                                                       
  -0.13018  T                                                                                                                       
  -0.11130  T                                                                                                                       
  -0.09241  T                                                                                                                       
  -0.07352  |T                                                                                                                      
  -0.05464  |T                                                                                                                      
  -0.03575  |T                                                                                                                      
  -0.01687  | T                                                                                                                     
   0.00202  | T                                                                                                                     
   0.02091  |   T                                                                                                                   
   0.03979  |    T                                                                                                                  
   0.05868  |      T                                                                                                                
   0.07756  |        T                                                                                                              
   0.09645  |         T                                                                                                             
   0.11534  |         T                                                                                                             
   0.13422  |       T                                                                                                               
   0.15311  |     T                                                                                                                 
   0.17199  |  T                                                                                                                    
   0.19088  |T                                                                                                                      
   0.20977  T                                                                                                                       
   0.22865  T                                                                                                                       
   0.24754  |T                                                                                                                      
   0.26643  |    T                                                                                                                  
   0.28531  |      T                                                                                                                
   0.30420  |        T                                                                                                              
   0.32308  |          T                                                                                                            
   0.34197  |            T                                                                                                          
   0.36086  |           T                                                                                                           
   0.37974  |        T                                                                                                              
   0.39863  |    T                                                                                                                  
   0.41751  |  T                                                                                                                    
   0.43640  |  T                                                                                                                    
   0.45529  |       T                                                                                                               
   0.47417  |                                 T                                                                                     
   0.49306  |                                 T                                                                                     
   0.51194  |                             T                                                                                         
   0.53083  |                      T                                                                                                
   0.54972  |                                      T                                                                                
   0.56860  |                                     T                                                                                 
   0.58749  |                           T                                                                                           
   0.60637  |                                   T                                                                                   
   0.62526  |                                        T                                                                              
   0.64415  |                                T                                                                                      
   0.66303  |                            T                                                                                          
   0.68192  |                         T                                                                                             
   0.70080  |                      T                                                                                                
   0.71969  |                    T                                                                                                  
   0.73858  |             T                                                                                                         
   0.75746  |         T                                                                                                             
   0.77635  |                                                       T                                                               
   0.79523  |                                                                                     T                                 
   0.81412  |                 T                                                                                                     
   0.83301  |     T                                                                                                                 
   0.85189  | T                                                                                                                     
   0.87078  |                                        T                                                                              
   0.88966  |                                         T                                                                             

 1002 DATA WRITTEN ON UNIT 25 WITH THE FOLLOWING HEADER :
 -%-3DOSS      1    8    0    0    0    0

 1002 DATA WRITTEN ON UNIT 25 WITH THE FOLLOWING HEADER :
 -%-3DOSS      2   10    0    0    0    0

 1002 DATA WRITTEN ON UNIT 25 WITH THE FOLLOWING HEADER :
 -%-3DOSS      3   46    0    0    0    0


    BETA       ELECTRONS

 BAND     INTEGRATED DOSS PER PROJECTION AND TOTAL
           1         2         T
  21   0.86719   0.00217   1.00000
  22   0.90798   0.00214   1.00000
  23   0.16756   0.65929   1.00000
  24   0.10999   0.80445   1.00000
  25   0.36181   0.32392   1.00000
  26   0.22430   0.60278   1.00000
  27   0.18970   0.68020   1.00000
  28   0.17297   0.70922   1.00000
  29   0.19412   0.70603   1.00000
  30   0.48165   0.33606   1.00000
  31   0.62045   0.18890   1.00000
  32   0.75313   0.10816   1.00000
  33   0.44378   0.45879   1.00000
  34   0.14040   0.85384   1.00000
  35   0.40700   0.54706   1.00000
  36   0.31211   0.00735   1.00000
  37   0.22965   0.00674   1.00000
  38   0.31498   0.00450   1.00000
  39   0.29538   0.01808   1.00000
  40   0.27866   0.02729   1.00000
  41   0.19338   0.05203   1.00000
  42   0.15156   0.09118   1.00000
  43   0.12355   0.11206   1.00000
  44   0.01663   0.89559   1.00000
  45   0.02696   0.82966   1.00000
  46   0.00463   0.97224   1.00000

 *** INTEGRATED DENSITIES IN THE ENERGY INTERVAL PER PROJECTION AND TOTAL
       1         2         T
    7.98955    9.99974   26.00000

 *** ENERGY  PROJECTED DENSITY OF STATES - FULL SCALE =    62.00681 AU

  -1.16891  2       1                                                                                                               
  -1.15003  2                     1                                                                                                 
  -1.13114  2                                                            1                                                          
  -1.11225  2                                                                                      1                                
  -1.09337  2                                                                                                                       
  -1.07448  2                                                                                                                       
  -1.05560  2                                                                                                                       
  -1.03671  2                                                                                                                       
  -1.01782  2                                                                                                                       
  -0.99894  2                                                                                                                       
  -0.98005  2                                                                                                                       
  -0.96117  2                                                                                                                       
  -0.94228  2                                                                                                                       
  -0.92339  2                                                                                                                       
  -0.90451  2                                                                                                                       
  -0.88562  2                                                                                                                       
  -0.86674  2                                                                                                                       
  -0.84785  2                                                                                                                       
  -0.82896  2                                                                                                                       
  -0.81008  2                                                                                                                       
  -0.79119  2                                                                                                                       
  -0.77231  2                                                                                                                       
  -0.75342  2                                                                                                                       
  -0.73453  2                                                                                                                       
  -0.71565  2                                                                                                                       
  -0.69676  2                                                                                                                       
  -0.67788  2                                                                                                                       
  -0.65899  2                                                                                                                       
  -0.64010  2                                                                                                                       
  -0.62122  2                                                                                                                       
  -0.60233  2                                                                                                                       
  -0.58345  2                                                                                                                       
  -0.56456  |  12                                                                                                                   
  -0.54567  |        1          2                                                                                                   
  -0.52679  |                1                                                                                                     2
  -0.50790  |        1        2                                                                                                     
  -0.48902  |                           1  2                                                                                        
  -0.47013  |                 1                                       2                                                             
  -0.45124  |            1                             2                                                                            
  -0.43236  |              1  2                                                                                                     
  -0.41347  |           1                                                                         2                                 
  -0.39459  |               1                                                    2                                                  
  -0.37570  |                2      1                                                                                               
  -0.35681  |     2                       1                                                                                         
  -0.33793  |   2                            1                                                                                      
  -0.31904  |  2                                1                                                                                   
  -0.30016  |    2                               1                                                                                  
  -0.28127  |      2                             1                                                                                  
  -0.26238  |                            1                                                             2                            
  -0.24350  |                              1                                                           2                            
  -0.22461  |     2        1                                                                                                        
  -0.20573  |2      1                                                                                                               
  -0.18684  21                                                                                                                      
  -0.16795  2                                                                                                                       
  -0.14907  2                                                                                                                       
  -0.13018  2                                                                                                                       
  -0.11130  2                                                                                                                       
  -0.09241  2                                                                                                                       
  -0.07352  2                                                                                                                       
  -0.05464  2                                                                                                                       
  -0.03575  21                                                                                                                      
  -0.01687  21                                                                                                                      
   0.00202  21                                                                                                                      
   0.02091  21                                                                                                                      
   0.03979  2 1                                                                                                                     
   0.05868  2  1                                                                                                                    
   0.07756  2  1                                                                                                                    
   0.09645  2  1                                                                                                                    
   0.11534  2  1                                                                                                                    
   0.13422  2 1                                                                                                                     
   0.15311  21                                                                                                                      
   0.17199  2                                                                                                                       
   0.19088  2                                                                                                                       
   0.20977  2                                                                                                                       
   0.22865  2                                                                                                                       
   0.24754  2                                                                                                                       
   0.26643  2 1                                                                                                                     
   0.28531  2 1                                                                                                                     
   0.30420  2 1                                                                                                                     
   0.32308  2  1                                                                                                                    
   0.34197  2  1                                                                                                                    
   0.36086  2  1                                                                                                                    
   0.37974  2 1                                                                                                                     
   0.39863  21                                                                                                                      
   0.41751  21                                                                                                                      
   0.43640  21                                                                                                                      
   0.45529  2  1                                                                                                                    
   0.47417  2           1                                                                                                           
   0.49306  2           1                                                                                                           
   0.51194  2           1                                                                                                           
   0.53083  2         1                                                                                                             
   0.54972  2              1                                                                                                        
   0.56860  2            1                                                                                                          
   0.58749  2      1                                                                                                                
   0.60637  2       1                                                                                                               
   0.62526  |2      1                                                                                                               
   0.64415  2     1                                                                                                                 
   0.66303  2     1                                                                                                                 
   0.68192  |2   1                                                                                                                  
   0.70080  |2   1                                                                                                                  
   0.71969  | 2 1                                                                                                                   
   0.73858  | 12                                                                                                                    
   0.75746  1     2                                                                                                                 
   0.77635  1                                                                2                                                      
   0.79523  |1                                                                                               2                      
   0.81412  |1             2                                                                                                        
   0.83301  1  2                                                                                                                    
   0.85189  2                                                                                                                       
   0.87078  1                                                2                                                                      
   0.88966  1                                                 2                                                                     

 *** ENERGY      TOTAL DENSITY OF STATES - FULL SCALE =    77.55377 AU

  -1.16891  |       T                                                                                                               
  -1.15003  |                    T                                                                                                  
  -1.13114  |                                                      T                                                                
  -1.11225  |                                                                           T                                           
  -1.09337  T                                                                                                                       
  -1.07448  T                                                                                                                       
  -1.05560  T                                                                                                                       
  -1.03671  T                                                                                                                       
  -1.01782  T                                                                                                                       
  -0.99894  T                                                                                                                       
  -0.98005  T                                                                                                                       
  -0.96117  T                                                                                                                       
  -0.94228  T                                                                                                                       
  -0.92339  T                                                                                                                       
  -0.90451  T                                                                                                                       
  -0.88562  T                                                                                                                       
  -0.86674  T                                                                                                                       
  -0.84785  T                                                                                                                       
  -0.82896  T                                                                                                                       
  -0.81008  T                                                                                                                       
  -0.79119  T                                                                                                                       
  -0.77231  T                                                                                                                       
  -0.75342  T                                                                                                                       
  -0.73453  T                                                                                                                       
  -0.71565  T                                                                                                                       
  -0.69676  T                                                                                                                       
  -0.67788  T                                                                                                                       
  -0.65899  T                                                                                                                       
  -0.64010  T                                                                                                                       
  -0.62122  T                                                                                                                       
  -0.60233  T                                                                                                                       
  -0.58345  |T                                                                                                                      
  -0.56456  |         T                                                                                                             
  -0.54567  |                               T                                                                                       
  -0.52679  |                                                                                                                     T 
  -0.50790  |                            T                                                                                          
  -0.48902  |                                                                   T                                                   
  -0.47013  |                                                                       T                                               
  -0.45124  |                                                    T                                                                  
  -0.43236  |                                  T                                                                                    
  -0.41347  |                                                                                    T                                  
  -0.39459  |                                                                          T                                            
  -0.37570  |                                         T                                                                             
  -0.35681  |                                     T                                                                                 
  -0.33793  |                                     T                                                                                 
  -0.31904  |                                      T                                                                                
  -0.30016  |                                       T                                                                               
  -0.28127  |                                       T                                                                               
  -0.26238  |                                                                                                  T                    
  -0.24350  |                                                                                                   T                   
  -0.22461  |                  T                                                                                                    
  -0.20573  |       T                                                                                                               
  -0.18684  |T                                                                                                                      
  -0.16795  T                                                                                                                       
  -0.14907  T                                                                                                                       
  -0.13018  T                                                                                                                       
  -0.11130  T                                                                                                                       
  -0.09241  T                                                                                                                       
  -0.07352  |T                                                                                                                      
  -0.05464  |T                                                                                                                      
  -0.03575  |T                                                                                                                      
  -0.01687  | T                                                                                                                     
   0.00202  | T                                                                                                                     
   0.02091  |   T                                                                                                                   
   0.03979  |    T                                                                                                                  
   0.05868  |      T                                                                                                                
   0.07756  |        T                                                                                                              
   0.09645  |         T                                                                                                             
   0.11534  |         T                                                                                                             
   0.13422  |       T                                                                                                               
   0.15311  |     T                                                                                                                 
   0.17199  |  T                                                                                                                    
   0.19088  |T                                                                                                                      
   0.20977  T                                                                                                                       
   0.22865  T                                                                                                                       
   0.24754  |T                                                                                                                      
   0.26643  |    T                                                                                                                  
   0.28531  |      T                                                                                                                
   0.30420  |        T                                                                                                              
   0.32308  |          T                                                                                                            
   0.34197  |            T                                                                                                          
   0.36086  |           T                                                                                                           
   0.37974  |        T                                                                                                              
   0.39863  |    T                                                                                                                  
   0.41751  |  T                                                                                                                    
   0.43640  |  T                                                                                                                    
   0.45529  |       T                                                                                                               
   0.47417  |                                 T                                                                                     
   0.49306  |                                 T                                                                                     
   0.51194  |                             T                                                                                         
   0.53083  |                      T                                                                                                
   0.54972  |                                      T                                                                                
   0.56860  |                                     T                                                                                 
   0.58749  |                           T                                                                                           
   0.60637  |                                   T                                                                                   
   0.62526  |                                        T                                                                              
   0.64415  |                                T                                                                                      
   0.66303  |                            T                                                                                          
   0.68192  |                         T                                                                                             
   0.70080  |                      T                                                                                                
   0.71969  |                    T                                                                                                  
   0.73858  |             T                                                                                                         
   0.75746  |         T                                                                                                             
   0.77635  |                                                       T                                                               
   0.79523  |                                                                                     T                                 
   0.81412  |                 T                                                                                                     
   0.83301  |     T                                                                                                                 
   0.85189  | T                                                                                                                     
   0.87078  |                                        T                                                                              
   0.88966  |                                         T                                                                             

 1002 DATA WRITTEN ON UNIT 25 WITH THE FOLLOWING HEADER :
 -%-3DOSS      1    8    0    0    0    0

 1002 DATA WRITTEN ON UNIT 25 WITH THE FOLLOWING HEADER :
 -%-3DOSS      2   10    0    0    0    0

 1002 DATA WRITTEN ON UNIT 25 WITH THE FOLLOWING HEADER :
 -%-3DOSS      3   46    0    0    0    0
 TTTTTTTTTTTTTTTTTTTTTTTTTTTTTT DOSS        TELAPSE        4.45 TCPU        4.17
 ENDPROP   
 TTTTTTTTTTTTTTTTTTTTTTTTTTTTTT END         TELAPSE        4.45 TCPU        4.17
 EEEEEEEEEE TERMINATION  DATE 24 09 2019 TIME 15:45:47.0
