********************************************************************************
*                       GENERAL UTILITY LATTICE PROGRAM                        *
*                                 Julian Gale                                  *
*                       Curtin Institute for Computation                       *
*                           Department of Chemistry                            *
*                    Curtin University, Western Australia                      *
********************************************************************************
* Version = 4.5.3 * Last modified =  19th April 2017                           *
********************************************************************************

  ReaxFF: Bond order cutoffs: 

  Species number =    1   4.04098
  Species number =    2   4.04098


*  optimise     - perform optimisation run                                     *
*  conp         - constant pressure calculation                                *
********************************************************************************
* the title                                                                    *
********************************************************************************


  Job Started  at 11:16.08 24th September  2018                               

  Number of CPUs =     1


  Total number of configurations input =   1

********************************************************************************
*  Input for Configuration =   1 : main-geometry                               *
********************************************************************************

  Formula = Fe4S8                                                       

  Number of irreducible atoms/shells =       2


  Total number atoms/shells =      12

  Dimensionality = 3               :  Bulk   


  Cell type = Cubic       

  Number of symmetry operators = 24

--------------------------------------------------------------------------------
  Operator : Rotation matrix                            : Translation vector    
--------------------------------------------------------------------------------
     1          1.000000    0.000000    0.000000            0.000000
                0.000000    1.000000    0.000000            0.000000
                0.000000    0.000000    1.000000            0.000000
     2         -1.000000    0.000000    0.000000            0.000000
                0.000000   -1.000000    0.000000            0.000000
                0.000000    0.000000   -1.000000            0.000000
     3         -1.000000    0.000000    0.000000            0.500000
                0.000000   -1.000000    0.000000            0.000000
                0.000000    0.000000    1.000000            0.500000
     4          1.000000    0.000000    0.000000            0.500000
                0.000000    1.000000    0.000000            0.000000
                0.000000    0.000000   -1.000000            0.500000
     5          1.000000    0.000000    0.000000            0.500000
                0.000000   -1.000000    0.000000            0.500000
                0.000000    0.000000   -1.000000            0.000000
     6         -1.000000    0.000000    0.000000            0.500000
                0.000000    1.000000    0.000000            0.500000
                0.000000    0.000000    1.000000            0.000000
     7         -1.000000    0.000000    0.000000            0.000000
                0.000000    1.000000    0.000000            0.500000
                0.000000    0.000000   -1.000000            0.500000
     8          1.000000    0.000000    0.000000            0.000000
                0.000000   -1.000000    0.000000            0.500000
                0.000000    0.000000    1.000000            0.500000
     9          0.000000    1.000000    0.000000            0.000000
                0.000000    0.000000    1.000000            0.000000
                1.000000    0.000000    0.000000            0.000000
    10          0.000000   -1.000000    0.000000            0.000000
                0.000000    0.000000   -1.000000            0.000000
               -1.000000    0.000000    0.000000            0.000000
    11          0.000000   -1.000000    0.000000            0.500000
                0.000000    0.000000   -1.000000            0.500000
                1.000000    0.000000    0.000000            0.000000
    12          0.000000    1.000000    0.000000            0.500000
                0.000000    0.000000    1.000000            0.500000
               -1.000000    0.000000    0.000000            0.000000
    13          0.000000    1.000000    0.000000            0.000000
                0.000000    0.000000   -1.000000            0.500000
               -1.000000    0.000000    0.000000            0.500000
    14          0.000000   -1.000000    0.000000            0.000000
                0.000000    0.000000    1.000000            0.500000
                1.000000    0.000000    0.000000            0.500000
    15          0.000000   -1.000000    0.000000            0.500000
                0.000000    0.000000    1.000000            0.000000
               -1.000000    0.000000    0.000000            0.500000
    16          0.000000    1.000000    0.000000            0.500000
                0.000000    0.000000   -1.000000            0.000000
                1.000000    0.000000    0.000000            0.500000
    17          0.000000    0.000000    1.000000            0.000000
                1.000000    0.000000    0.000000            0.000000
                0.000000    1.000000    0.000000            0.000000
    18          0.000000    0.000000   -1.000000            0.000000
               -1.000000    0.000000    0.000000            0.000000
                0.000000   -1.000000    0.000000            0.000000
    19          0.000000    0.000000   -1.000000            0.000000
               -1.000000    0.000000    0.000000            0.500000
                0.000000    1.000000    0.000000            0.500000
    20          0.000000    0.000000    1.000000            0.000000
                1.000000    0.000000    0.000000            0.500000
                0.000000   -1.000000    0.000000            0.500000
    21          0.000000    0.000000    1.000000            0.500000
               -1.000000    0.000000    0.000000            0.000000
                0.000000   -1.000000    0.000000            0.500000
    22          0.000000    0.000000   -1.000000            0.500000
                1.000000    0.000000    0.000000            0.000000
                0.000000    1.000000    0.000000            0.500000
    23          0.000000    0.000000   -1.000000            0.500000
                1.000000    0.000000    0.000000            0.500000
                0.000000   -1.000000    0.000000            0.000000
    24          0.000000    0.000000    1.000000            0.500000
               -1.000000    0.000000    0.000000            0.500000
                0.000000    1.000000    0.000000            0.000000
--------------------------------------------------------------------------------

  Cartesian lattice vectors (Angstroms) :

        5.380000    0.000000    0.000000
        0.000000    5.380000    0.000000
        0.000000    0.000000    5.380000

  Cell parameters (Angstroms/Degrees):

  a =       5.3800    alpha =  90.0000
  b =       5.3800    beta  =  90.0000
  c =       5.3800    gamma =  90.0000

  Initial cell volume =         155.720872 Angs**3

  Temperature of configuration =  0.000     K 

  Pressure of configuration =         0.000 GPa 

  Fractional coordinates of asymmetric unit :

--------------------------------------------------------------------------------
   No.  Atomic       x           y          z         Charge      Occupancy
        Label      (Frac)      (Frac)     (Frac)        (e)         (Frac)  
--------------------------------------------------------------------------------
      1 Fe    c    0.000000    0.000000    0.000000     0.00000    1.000000    
      2 S     c    0.338000 *  0.338000    0.338000     0.00000    1.000000    
--------------------------------------------------------------------------------


  Constraints : 

--------------------------------------------------------------------------------
  Constraint no.      Unconstrained     Constrained    Coefficient    Offset
                         Variable         Variable
--------------------------------------------------------------------------------
           1                 2 x             2 y         1.00000      0.0000
           2                 2 x             2 z         1.00000      0.0000
--------------------------------------------------------------------------------


********************************************************************************
*  General input information                                                   *
********************************************************************************

  Species output for all configurations : 

--------------------------------------------------------------------------------
  Species    Type    Atomic    Atomic    Charge       Radii (Angs)     Library
                     Number     Mass       (e)     Cova   Ionic  VDW   Symbol
--------------------------------------------------------------------------------
    Fe       Core       26      55.85   0.000000   1.340  0.000  2.000          
    S        Core       16      32.07   0.000000   1.020  0.000  1.700          
--------------------------------------------------------------------------------


  Lattice summation method               =    Ewald          (3-D)
                                         =    Parry          (2-D)
                                         =    Saunders et al (1-D)
  Accuracy factor for lattice sums       =   12.000


  Time limit = Infinity

  ReaxFF: Bond order cutoffs: 

  Species number =    1   4.04098
  Species number =    2   4.04098



  Maximum range for interatomic potentials =    100000.000000 Angstroms

  ReaxFF forcefield to be used

  ReaxFF Coulomb cutoff =  10.0000 Ang
  ReaxFF VDW     cutoff =  10.0000 Ang
  ReaxFF H-bond  cutoff =   7.5000 Ang

  ReaxFF pairwise bond order       threshold = 0.00100000000000
  ReaxFF angle/torsion bond order  threshold = 0.00100000000000
  ReaxFF bond order double product threshold = 0.00000100000000
  ReaxFF bond order triple product threshold = 0.00000000000000
  ReaxFF hydrogen-bond bond order  threshold = 0.01000000000000


********************************************************************************
*  Output for configuration   1 : main-geometry                                *
********************************************************************************


  Increasing maxneigh to     26

  ReaxFF: Delta and Bond Order prime: 

   1  2.764770    2  0.0024    2  0.0024    2  0.0024    2  0.0024    3  0.0024    3  0.0024
    3  0.0024    3  0.0024    4  0.0024    4  0.0024    4  0.0024    4  0.0024
    5  0.2404    6  0.2404    7  0.0108    7  0.8651    8  0.8651    8  0.0108
    9  0.0108    9  0.8651   10  0.8651   10  0.0108   11  0.0108   11  0.8651
   12  0.8651   12  0.0108
   2  2.764770    1  0.0024    1  0.0024    1  0.0024    1  0.0024    3  0.0024    3  0.0024
    3  0.0024    3  0.0024    4  0.0024    4  0.0024    4  0.0024    4  0.0024
    5  0.8651    5  0.0108    6  0.0108    6  0.8651    7  0.2404    8  0.2404
    9  0.8651    9  0.0108   10  0.0108   10  0.8651   11  0.0108   11  0.8651
   12  0.8651   12  0.0108
   3  2.764770    1  0.0024    1  0.0024    1  0.0024    1  0.0024    2  0.0024    2  0.0024
    2  0.0024    2  0.0024    4  0.0024    4  0.0024    4  0.0024    4  0.0024
    5  0.8651    5  0.0108    6  0.0108    6  0.8651    7  0.0108    7  0.8651
    8  0.8651    8  0.0108    9  0.2404   10  0.2404   11  0.8651   11  0.0108
   12  0.0108   12  0.8651
   4  2.764770    1  0.0024    1  0.0024    1  0.0024    1  0.0024    2  0.0024    2  0.0024
    2  0.0024    2  0.0024    3  0.0024    3  0.0024    3  0.0024    3  0.0024
    5  0.8651    5  0.0108    6  0.0108    6  0.8651    7  0.8651    7  0.0108
    8  0.0108    8  0.8651    9  0.0108    9  0.8651   10  0.8651   10  0.0108
   11  0.2404   12  0.2404
   5  2.093572    1  0.2404    2  0.8651    2  0.0108    3  0.8651    3  0.0108    4  0.8651
    4  0.0108    6  0.0873    7  0.0097    7  0.0097    8  0.1800    8  0.1800
    9  0.0097    9  0.0097   10  0.1800   10  0.1800   11  0.0097   11  0.0097
   12  0.1800   12  0.1800
   6  2.093572    1  0.2404    2  0.0108    2  0.8651    3  0.0108    3  0.8651    4  0.0108
    4  0.8651    5  0.0873    7  0.1800    7  0.1800    8  0.0097    8  0.0097
    9  0.1800    9  0.1800   10  0.0097   10  0.0097   11  0.1800   11  0.1800
   12  0.0097   12  0.0097
   7  2.093572    1  0.0108    1  0.8651    2  0.2404    3  0.0108    3  0.8651    4  0.8651
    4  0.0108    5  0.0097    5  0.0097    6  0.1800    6  0.1800    8  0.0873
    9  0.0097    9  0.0097   10  0.1800   10  0.1800   11  0.0097   11  0.0097
   12  0.1800   12  0.1800
   8  2.093572    1  0.8651    1  0.0108    2  0.2404    3  0.8651    3  0.0108    4  0.0108
    4  0.8651    5  0.1800    5  0.1800    6  0.0097    6  0.0097    7  0.0873
    9  0.1800    9  0.1800   10  0.0097   10  0.0097   11  0.1800   11  0.1800
   12  0.0097   12  0.0097
   9  2.093572    1  0.0108    1  0.8651    2  0.8651    2  0.0108    3  0.2404    4  0.0108
    4  0.8651    5  0.0097    5  0.0097    6  0.1800    6  0.1800    7  0.0097
    7  0.0097    8  0.1800    8  0.1800   10  0.0873   11  0.0097   11  0.0097
   12  0.1800   12  0.1800
  10  2.093572    1  0.8651    1  0.0108    2  0.0108    2  0.8651    3  0.2404    4  0.8651
    4  0.0108    5  0.1800    5  0.1800    6  0.0097    6  0.0097    7  0.1800
    7  0.1800    8  0.0097    8  0.0097    9  0.0873   11  0.1800   11  0.1800
   12  0.0097   12  0.0097
  11  2.093572    1  0.0108    1  0.8651    2  0.0108    2  0.8651    3  0.8651    3  0.0108
    4  0.2404    5  0.0097    5  0.0097    6  0.1800    6  0.1800    7  0.0097
    7  0.0097    8  0.1800    8  0.1800    9  0.0097    9  0.0097   10  0.1800
   10  0.1800   12  0.0873
  12  2.093572    1  0.8651    1  0.0108    2  0.8651    2  0.0108    3  0.0108    3  0.8651
    4  0.2404    5  0.1800    5  0.1800    6  0.0097    6  0.0097    7  0.1800
    7  0.1800    8  0.0097    8  0.0097    9  0.1800    9  0.1800   10  0.0097
   10  0.0097   11  0.0873

  ReaxFF: Bond Order sigma prime: 

   1    2  0.0024    2  0.0024    2  0.0024    2  0.0024    3  0.0024    3  0.0024
    3  0.0024    3  0.0024    4  0.0024    4  0.0024    4  0.0024    4  0.0024
    5  0.2404    6  0.2404    7  0.0108    7  0.8651    8  0.8651    8  0.0108
    9  0.0108    9  0.8651   10  0.8651   10  0.0108   11  0.0108   11  0.8651
   12  0.8651   12  0.0108
   2    1  0.0024    1  0.0024    1  0.0024    1  0.0024    3  0.0024    3  0.0024
    3  0.0024    3  0.0024    4  0.0024    4  0.0024    4  0.0024    4  0.0024
    5  0.8651    5  0.0108    6  0.0108    6  0.8651    7  0.2404    8  0.2404
    9  0.8651    9  0.0108   10  0.0108   10  0.8651   11  0.0108   11  0.8651
   12  0.8651   12  0.0108
   3    1  0.0024    1  0.0024    1  0.0024    1  0.0024    2  0.0024    2  0.0024
    2  0.0024    2  0.0024    4  0.0024    4  0.0024    4  0.0024    4  0.0024
    5  0.8651    5  0.0108    6  0.0108    6  0.8651    7  0.0108    7  0.8651
    8  0.8651    8  0.0108    9  0.2404   10  0.2404   11  0.8651   11  0.0108
   12  0.0108   12  0.8651
   4    1  0.0024    1  0.0024    1  0.0024    1  0.0024    2  0.0024    2  0.0024
    2  0.0024    2  0.0024    3  0.0024    3  0.0024    3  0.0024    3  0.0024
    5  0.8651    5  0.0108    6  0.0108    6  0.8651    7  0.8651    7  0.0108
    8  0.0108    8  0.8651    9  0.0108    9  0.8651   10  0.8651   10  0.0108
   11  0.2404   12  0.2404
   5    1  0.2404    2  0.8651    2  0.0108    3  0.8651    3  0.0108    4  0.8651
    4  0.0108    6  0.0873    7  0.0097    7  0.0097    8  0.1800    8  0.1800
    9  0.0097    9  0.0097   10  0.1800   10  0.1800   11  0.0097   11  0.0097
   12  0.1800   12  0.1800
   6    1  0.2404    2  0.0108    2  0.8651    3  0.0108    3  0.8651    4  0.0108
    4  0.8651    5  0.0873    7  0.1800    7  0.1800    8  0.0097    8  0.0097
    9  0.1800    9  0.1800   10  0.0097   10  0.0097   11  0.1800   11  0.1800
   12  0.0097   12  0.0097
   7    1  0.0108    1  0.8651    2  0.2404    3  0.0108    3  0.8651    4  0.8651
    4  0.0108    5  0.0097    5  0.0097    6  0.1800    6  0.1800    8  0.0873
    9  0.0097    9  0.0097   10  0.1800   10  0.1800   11  0.0097   11  0.0097
   12  0.1800   12  0.1800
   8    1  0.8651    1  0.0108    2  0.2404    3  0.8651    3  0.0108    4  0.0108
    4  0.8651    5  0.1800    5  0.1800    6  0.0097    6  0.0097    7  0.0873
    9  0.1800    9  0.1800   10  0.0097   10  0.0097   11  0.1800   11  0.1800
   12  0.0097   12  0.0097
   9    1  0.0108    1  0.8651    2  0.8651    2  0.0108    3  0.2404    4  0.0108
    4  0.8651    5  0.0097    5  0.0097    6  0.1800    6  0.1800    7  0.0097
    7  0.0097    8  0.1800    8  0.1800   10  0.0873   11  0.0097   11  0.0097
   12  0.1800   12  0.1800
  10    1  0.8651    1  0.0108    2  0.0108    2  0.8651    3  0.2404    4  0.8651
    4  0.0108    5  0.1800    5  0.1800    6  0.0097    6  0.0097    7  0.1800
    7  0.1800    8  0.0097    8  0.0097    9  0.0873   11  0.1800   11  0.1800
   12  0.0097   12  0.0097
  11    1  0.0108    1  0.8651    2  0.0108    2  0.8651    3  0.8651    3  0.0108
    4  0.2404    5  0.0097    5  0.0097    6  0.1800    6  0.1800    7  0.0097
    7  0.0097    8  0.1800    8  0.1800    9  0.0097    9  0.0097   10  0.1800
   10  0.1800   12  0.0873
  12    1  0.8651    1  0.0108    2  0.8651    2  0.0108    3  0.0108    3  0.8651
    4  0.2404    5  0.1800    5  0.1800    6  0.0097    6  0.0097    7  0.1800
    7  0.1800    8  0.0097    8  0.0097    9  0.1800    9  0.1800   10  0.0097
   10  0.0097   11  0.0873

  ReaxFF: Bond Order pi prime: 

   1    2  0.0000    2  0.0000    2  0.0000    2  0.0000    3  0.0000    3  0.0000
    3  0.0000    3  0.0000    4  0.0000    4  0.0000    4  0.0000    4  0.0000
    5  0.0000    6  0.0000    7  0.0000    7  0.0000    8  0.0000    8  0.0000
    9  0.0000    9  0.0000   10  0.0000   10  0.0000   11  0.0000   11  0.0000
   12  0.0000   12  0.0000
   2    1  0.0000    1  0.0000    1  0.0000    1  0.0000    3  0.0000    3  0.0000
    3  0.0000    3  0.0000    4  0.0000    4  0.0000    4  0.0000    4  0.0000
    5  0.0000    5  0.0000    6  0.0000    6  0.0000    7  0.0000    8  0.0000
    9  0.0000    9  0.0000   10  0.0000   10  0.0000   11  0.0000   11  0.0000
   12  0.0000   12  0.0000
   3    1  0.0000    1  0.0000    1  0.0000    1  0.0000    2  0.0000    2  0.0000
    2  0.0000    2  0.0000    4  0.0000    4  0.0000    4  0.0000    4  0.0000
    5  0.0000    5  0.0000    6  0.0000    6  0.0000    7  0.0000    7  0.0000
    8  0.0000    8  0.0000    9  0.0000   10  0.0000   11  0.0000   11  0.0000
   12  0.0000   12  0.0000
   4    1  0.0000    1  0.0000    1  0.0000    1  0.0000    2  0.0000    2  0.0000
    2  0.0000    2  0.0000    3  0.0000    3  0.0000    3  0.0000    3  0.0000
    5  0.0000    5  0.0000    6  0.0000    6  0.0000    7  0.0000    7  0.0000
    8  0.0000    8  0.0000    9  0.0000    9  0.0000   10  0.0000   10  0.0000
   11  0.0000   12  0.0000
   5    1  0.0000    2  0.0000    2  0.0000    3  0.0000    3  0.0000    4  0.0000
    4  0.0000    6  0.0000    7  0.0000    7  0.0000    8  0.0000    8  0.0000
    9  0.0000    9  0.0000   10  0.0000   10  0.0000   11  0.0000   11  0.0000
   12  0.0000   12  0.0000
   6    1  0.0000    2  0.0000    2  0.0000    3  0.0000    3  0.0000    4  0.0000
    4  0.0000    5  0.0000    7  0.0000    7  0.0000    8  0.0000    8  0.0000
    9  0.0000    9  0.0000   10  0.0000   10  0.0000   11  0.0000   11  0.0000
   12  0.0000   12  0.0000
   7    1  0.0000    1  0.0000    2  0.0000    3  0.0000    3  0.0000    4  0.0000
    4  0.0000    5  0.0000    5  0.0000    6  0.0000    6  0.0000    8  0.0000
    9  0.0000    9  0.0000   10  0.0000   10  0.0000   11  0.0000   11  0.0000
   12  0.0000   12  0.0000
   8    1  0.0000    1  0.0000    2  0.0000    3  0.0000    3  0.0000    4  0.0000
    4  0.0000    5  0.0000    5  0.0000    6  0.0000    6  0.0000    7  0.0000
    9  0.0000    9  0.0000   10  0.0000   10  0.0000   11  0.0000   11  0.0000
   12  0.0000   12  0.0000
   9    1  0.0000    1  0.0000    2  0.0000    2  0.0000    3  0.0000    4  0.0000
    4  0.0000    5  0.0000    5  0.0000    6  0.0000    6  0.0000    7  0.0000
    7  0.0000    8  0.0000    8  0.0000   10  0.0000   11  0.0000   11  0.0000
   12  0.0000   12  0.0000
  10    1  0.0000    1  0.0000    2  0.0000    2  0.0000    3  0.0000    4  0.0000
    4  0.0000    5  0.0000    5  0.0000    6  0.0000    6  0.0000    7  0.0000
    7  0.0000    8  0.0000    8  0.0000    9  0.0000   11  0.0000   11  0.0000
   12  0.0000   12  0.0000
  11    1  0.0000    1  0.0000    2  0.0000    2  0.0000    3  0.0000    3  0.0000
    4  0.0000    5  0.0000    5  0.0000    6  0.0000    6  0.0000    7  0.0000
    7  0.0000    8  0.0000    8  0.0000    9  0.0000    9  0.0000   10  0.0000
   10  0.0000   12  0.0000
  12    1  0.0000    1  0.0000    2  0.0000    2  0.0000    3  0.0000    3  0.0000
    4  0.0000    5  0.0000    5  0.0000    6  0.0000    6  0.0000    7  0.0000
    7  0.0000    8  0.0000    8  0.0000    9  0.0000    9  0.0000   10  0.0000
   10  0.0000   11  0.0000

  ReaxFF: Bond Order pi-pi prime: 

   1    2  0.0000    2  0.0000    2  0.0000    2  0.0000    3  0.0000    3  0.0000
    3  0.0000    3  0.0000    4  0.0000    4  0.0000    4  0.0000    4  0.0000
    5  0.0000    6  0.0000    7  0.0000    7  0.0000    8  0.0000    8  0.0000
    9  0.0000    9  0.0000   10  0.0000   10  0.0000   11  0.0000   11  0.0000
   12  0.0000   12  0.0000
   2    1  0.0000    1  0.0000    1  0.0000    1  0.0000    3  0.0000    3  0.0000
    3  0.0000    3  0.0000    4  0.0000    4  0.0000    4  0.0000    4  0.0000
    5  0.0000    5  0.0000    6  0.0000    6  0.0000    7  0.0000    8  0.0000
    9  0.0000    9  0.0000   10  0.0000   10  0.0000   11  0.0000   11  0.0000
   12  0.0000   12  0.0000
   3    1  0.0000    1  0.0000    1  0.0000    1  0.0000    2  0.0000    2  0.0000
    2  0.0000    2  0.0000    4  0.0000    4  0.0000    4  0.0000    4  0.0000
    5  0.0000    5  0.0000    6  0.0000    6  0.0000    7  0.0000    7  0.0000
    8  0.0000    8  0.0000    9  0.0000   10  0.0000   11  0.0000   11  0.0000
   12  0.0000   12  0.0000
   4    1  0.0000    1  0.0000    1  0.0000    1  0.0000    2  0.0000    2  0.0000
    2  0.0000    2  0.0000    3  0.0000    3  0.0000    3  0.0000    3  0.0000
    5  0.0000    5  0.0000    6  0.0000    6  0.0000    7  0.0000    7  0.0000
    8  0.0000    8  0.0000    9  0.0000    9  0.0000   10  0.0000   10  0.0000
   11  0.0000   12  0.0000
   5    1  0.0000    2  0.0000    2  0.0000    3  0.0000    3  0.0000    4  0.0000
    4  0.0000    6  0.0000    7  0.0000    7  0.0000    8  0.0000    8  0.0000
    9  0.0000    9  0.0000   10  0.0000   10  0.0000   11  0.0000   11  0.0000
   12  0.0000   12  0.0000
   6    1  0.0000    2  0.0000    2  0.0000    3  0.0000    3  0.0000    4  0.0000
    4  0.0000    5  0.0000    7  0.0000    7  0.0000    8  0.0000    8  0.0000
    9  0.0000    9  0.0000   10  0.0000   10  0.0000   11  0.0000   11  0.0000
   12  0.0000   12  0.0000
   7    1  0.0000    1  0.0000    2  0.0000    3  0.0000    3  0.0000    4  0.0000
    4  0.0000    5  0.0000    5  0.0000    6  0.0000    6  0.0000    8  0.0000
    9  0.0000    9  0.0000   10  0.0000   10  0.0000   11  0.0000   11  0.0000
   12  0.0000   12  0.0000
   8    1  0.0000    1  0.0000    2  0.0000    3  0.0000    3  0.0000    4  0.0000
    4  0.0000    5  0.0000    5  0.0000    6  0.0000    6  0.0000    7  0.0000
    9  0.0000    9  0.0000   10  0.0000   10  0.0000   11  0.0000   11  0.0000
   12  0.0000   12  0.0000
   9    1  0.0000    1  0.0000    2  0.0000    2  0.0000    3  0.0000    4  0.0000
    4  0.0000    5  0.0000    5  0.0000    6  0.0000    6  0.0000    7  0.0000
    7  0.0000    8  0.0000    8  0.0000   10  0.0000   11  0.0000   11  0.0000
   12  0.0000   12  0.0000
  10    1  0.0000    1  0.0000    2  0.0000    2  0.0000    3  0.0000    4  0.0000
    4  0.0000    5  0.0000    5  0.0000    6  0.0000    6  0.0000    7  0.0000
    7  0.0000    8  0.0000    8  0.0000    9  0.0000   11  0.0000   11  0.0000
   12  0.0000   12  0.0000
  11    1  0.0000    1  0.0000    2  0.0000    2  0.0000    3  0.0000    3  0.0000
    4  0.0000    5  0.0000    5  0.0000    6  0.0000    6  0.0000    7  0.0000
    7  0.0000    8  0.0000    8  0.0000    9  0.0000    9  0.0000   10  0.0000
   10  0.0000   12  0.0000
  12    1  0.0000    1  0.0000    2  0.0000    2  0.0000    3  0.0000    3  0.0000
    4  0.0000    5  0.0000    5  0.0000    6  0.0000    6  0.0000    7  0.0000
    7  0.0000    8  0.0000    8  0.0000    9  0.0000    9  0.0000   10  0.0000
   10  0.0000   11  0.0000



  ReaxFF: Delta and Bond Order: 

   1  2.764770    2  0.0024    2  0.0024    2  0.0024    2  0.0024    3  0.0024    3  0.0024
    3  0.0024    3  0.0024    4  0.0024    4  0.0024    4  0.0024    4  0.0024
    5  0.2404    6  0.2404    7  0.0108    7  0.8651    8  0.8651    8  0.0108
    9  0.0108    9  0.8651   10  0.8651   10  0.0108   11  0.0108   11  0.8651
   12  0.8651   12  0.0108
   2  2.764770    1  0.0024    1  0.0024    1  0.0024    1  0.0024    3  0.0024    3  0.0024
    3  0.0024    3  0.0024    4  0.0024    4  0.0024    4  0.0024    4  0.0024
    5  0.8651    5  0.0108    6  0.0108    6  0.8651    7  0.2404    8  0.2404
    9  0.8651    9  0.0108   10  0.0108   10  0.8651   11  0.0108   11  0.8651
   12  0.8651   12  0.0108
   3  2.764770    1  0.0024    1  0.0024    1  0.0024    1  0.0024    2  0.0024    2  0.0024
    2  0.0024    2  0.0024    4  0.0024    4  0.0024    4  0.0024    4  0.0024
    5  0.8651    5  0.0108    6  0.0108    6  0.8651    7  0.0108    7  0.8651
    8  0.8651    8  0.0108    9  0.2404   10  0.2404   11  0.8651   11  0.0108
   12  0.0108   12  0.8651
   4  2.764770    1  0.0024    1  0.0024    1  0.0024    1  0.0024    2  0.0024    2  0.0024
    2  0.0024    2  0.0024    3  0.0024    3  0.0024    3  0.0024    3  0.0024
    5  0.8651    5  0.0108    6  0.0108    6  0.8651    7  0.8651    7  0.0108
    8  0.0108    8  0.8651    9  0.0108    9  0.8651   10  0.8651   10  0.0108
   11  0.2404   12  0.2404
   5  1.466869    1  0.2404    2  0.8651    2  0.0108    3  0.8651    3  0.0108    4  0.8651
    4  0.0108    6  0.0426    7  0.0048    7  0.0048    8  0.0879    8  0.0879
    9  0.0048    9  0.0048   10  0.0879   10  0.0879   11  0.0048   11  0.0048
   12  0.0879   12  0.0879
   6  1.466869    1  0.2404    2  0.0108    2  0.8651    3  0.0108    3  0.8651    4  0.0108
    4  0.8651    5  0.0426    7  0.0879    7  0.0879    8  0.0048    8  0.0048
    9  0.0879    9  0.0879   10  0.0048   10  0.0048   11  0.0879   11  0.0879
   12  0.0048   12  0.0048
   7  1.466869    1  0.0108    1  0.8651    2  0.2404    3  0.0108    3  0.8651    4  0.8651
    4  0.0108    5  0.0048    5  0.0048    6  0.0879    6  0.0879    8  0.0426
    9  0.0048    9  0.0048   10  0.0879   10  0.0879   11  0.0048   11  0.0048
   12  0.0879   12  0.0879
   8  1.466869    1  0.8651    1  0.0108    2  0.2404    3  0.8651    3  0.0108    4  0.0108
    4  0.8651    5  0.0879    5  0.0879    6  0.0048    6  0.0048    7  0.0426
    9  0.0879    9  0.0879   10  0.0048   10  0.0048   11  0.0879   11  0.0879
   12  0.0048   12  0.0048
   9  1.466869    1  0.0108    1  0.8651    2  0.8651    2  0.0108    3  0.2404    4  0.0108
    4  0.8651    5  0.0048    5  0.0048    6  0.0879    6  0.0879    7  0.0048
    7  0.0048    8  0.0879    8  0.0879   10  0.0426   11  0.0048   11  0.0048
   12  0.0879   12  0.0879
  10  1.466869    1  0.8651    1  0.0108    2  0.0108    2  0.8651    3  0.2404    4  0.8651
    4  0.0108    5  0.0879    5  0.0879    6  0.0048    6  0.0048    7  0.0879
    7  0.0879    8  0.0048    8  0.0048    9  0.0426   11  0.0879   11  0.0879
   12  0.0048   12  0.0048
  11  1.466869    1  0.0108    1  0.8651    2  0.0108    2  0.8651    3  0.8651    3  0.0108
    4  0.2404    5  0.0048    5  0.0048    6  0.0879    6  0.0879    7  0.0048
    7  0.0048    8  0.0879    8  0.0879    9  0.0048    9  0.0048   10  0.0879
   10  0.0879   12  0.0426
  12  1.466869    1  0.8651    1  0.0108    2  0.8651    2  0.0108    3  0.0108    3  0.8651
    4  0.2404    5  0.0879    5  0.0879    6  0.0048    6  0.0048    7  0.0879
    7  0.0879    8  0.0048    8  0.0048    9  0.0879    9  0.0879   10  0.0048
   10  0.0048   11  0.0426

  ReaxFF: Delta lone pair: 

   1  1.000000
   2  1.000000
   3  1.000000
   4  1.000000
   5  0.999998
   6  0.999998
   7  0.999998
   8  0.999998
   9  0.999998
  10  0.999998
  11  0.999998
  12  0.999998


  ReaxFF : Energy contributions: 

  E(bond)     =     -78.23660866 eV =    -1804.1674905 kcal
  E(bpen)     =       0.00000000 eV =        0.0000000 kcal
  E(lonepair) =       1.21399347 eV =       27.9951750 kcal
  E(over)     =      12.78993990 eV =      294.9411301 kcal
  E(under)    =       0.00000000 eV =        0.0000000 kcal
  E(val)      =      16.69159999 eV =      384.9149723 kcal
  E(pen)      =       0.00000000 eV =        0.0000000 kcal
  E(coa)      =       0.00000000 eV =        0.0000000 kcal
  E(tors)     =       2.37222583 eV =       54.7044766 kcal
  E(conj)     =       0.00000000 eV =        0.0000000 kcal
  E(hb)       =       0.00000000 eV =        0.0000000 kcal
  E(vdw)      =       6.41369507 eV =      147.9023739 kcal
  E(coulomb)  =      -3.34422152 eV =      -77.1190860 kcal
  E(self)     =      -0.10608718 eV =       -2.4464129 kcal

  Components of energy : 

--------------------------------------------------------------------------------
  Interatomic potentials     =           0.00000000 eV    
  ReaxFF force field         =         -42.20546311 eV    
  Monopole - monopole (real) =           0.00000000 eV    
  Monopole - monopole (recip)=           0.00000000 eV    
  Monopole - monopole (total)=           0.00000000 eV    
--------------------------------------------------------------------------------
  Total lattice energy       =         -42.20546311 eV    
--------------------------------------------------------------------------------
  Total lattice energy       =           -4072.1820 kJ/(mole unit cells)
--------------------------------------------------------------------------------


  Number of variables =        7

  Maximum number of calculations  =         50000
  Maximum Hessian update interval =            10
  Maximum step size               =   1.000000000
  Maximum parameter tolerance     =   0.000010000
  Maximum function  tolerance     =   0.000010000
  Maximum gradient  tolerance     =   0.001000000
  Maximum gradient  component     =   0.010000000

  Symmetry constrained optimisation

  Cell parameters to be optimised using strains

  Newton-Raphson optimiser to be used

  BFGS hessian update to be used

  Start of bulk optimisation :


  ReaxFF: Delta and Bond Order prime: 

   1  2.764770    2  0.0024    2  0.0024    2  0.0024    2  0.0024    3  0.0024    3  0.0024
    3  0.0024    3  0.0024    4  0.0024    4  0.0024    4  0.0024    4  0.0024
    5  0.2404    6  0.2404    7  0.0108    7  0.8651    8  0.8651    8  0.0108
    9  0.0108    9  0.8651   10  0.8651   10  0.0108   11  0.0108   11  0.8651
   12  0.8651   12  0.0108
   2  2.764770    1  0.0024    1  0.0024    1  0.0024    1  0.0024    3  0.0024    3  0.0024
    3  0.0024    3  0.0024    4  0.0024    4  0.0024    4  0.0024    4  0.0024
    5  0.8651    5  0.0108    6  0.0108    6  0.8651    7  0.2404    8  0.2404
    9  0.8651    9  0.0108   10  0.0108   10  0.8651   11  0.0108   11  0.8651
   12  0.8651   12  0.0108
   3  2.764770    1  0.0024    1  0.0024    1  0.0024    1  0.0024    2  0.0024    2  0.0024
    2  0.0024    2  0.0024    4  0.0024    4  0.0024    4  0.0024    4  0.0024
    5  0.8651    5  0.0108    6  0.0108    6  0.8651    7  0.0108    7  0.8651
    8  0.8651    8  0.0108    9  0.2404   10  0.2404   11  0.8651   11  0.0108
   12  0.0108   12  0.8651
   4  2.764770    1  0.0024    1  0.0024    1  0.0024    1  0.0024    2  0.0024    2  0.0024
    2  0.0024    2  0.0024    3  0.0024    3  0.0024    3  0.0024    3  0.0024
    5  0.8651    5  0.0108    6  0.0108    6  0.8651    7  0.8651    7  0.0108
    8  0.0108    8  0.8651    9  0.0108    9  0.8651   10  0.8651   10  0.0108
   11  0.2404   12  0.2404
   5  2.093572    1  0.2404    2  0.8651    2  0.0108    3  0.8651    3  0.0108    4  0.8651
    4  0.0108    6  0.0873    7  0.0097    7  0.0097    8  0.1800    8  0.1800
    9  0.0097    9  0.0097   10  0.1800   10  0.1800   11  0.0097   11  0.0097
   12  0.1800   12  0.1800
   6  2.093572    1  0.2404    2  0.0108    2  0.8651    3  0.0108    3  0.8651    4  0.0108
    4  0.8651    5  0.0873    7  0.1800    7  0.1800    8  0.0097    8  0.0097
    9  0.1800    9  0.1800   10  0.0097   10  0.0097   11  0.1800   11  0.1800
   12  0.0097   12  0.0097
   7  2.093572    1  0.0108    1  0.8651    2  0.2404    3  0.0108    3  0.8651    4  0.8651
    4  0.0108    5  0.0097    5  0.0097    6  0.1800    6  0.1800    8  0.0873
    9  0.0097    9  0.0097   10  0.1800   10  0.1800   11  0.0097   11  0.0097
   12  0.1800   12  0.1800
   8  2.093572    1  0.8651    1  0.0108    2  0.2404    3  0.8651    3  0.0108    4  0.0108
    4  0.8651    5  0.1800    5  0.1800    6  0.0097    6  0.0097    7  0.0873
    9  0.1800    9  0.1800   10  0.0097   10  0.0097   11  0.1800   11  0.1800
   12  0.0097   12  0.0097
   9  2.093572    1  0.0108    1  0.8651    2  0.8651    2  0.0108    3  0.2404    4  0.0108
    4  0.8651    5  0.0097    5  0.0097    6  0.1800    6  0.1800    7  0.0097
    7  0.0097    8  0.1800    8  0.1800   10  0.0873   11  0.0097   11  0.0097
   12  0.1800   12  0.1800
  10  2.093572    1  0.8651    1  0.0108    2  0.0108    2  0.8651    3  0.2404    4  0.8651
    4  0.0108    5  0.1800    5  0.1800    6  0.0097    6  0.0097    7  0.1800
    7  0.1800    8  0.0097    8  0.0097    9  0.0873   11  0.1800   11  0.1800
   12  0.0097   12  0.0097
  11  2.093572    1  0.0108    1  0.8651    2  0.0108    2  0.8651    3  0.8651    3  0.0108
    4  0.2404    5  0.0097    5  0.0097    6  0.1800    6  0.1800    7  0.0097
    7  0.0097    8  0.1800    8  0.1800    9  0.0097    9  0.0097   10  0.1800
   10  0.1800   12  0.0873
  12  2.093572    1  0.8651    1  0.0108    2  0.8651    2  0.0108    3  0.0108    3  0.8651
    4  0.2404    5  0.1800    5  0.1800    6  0.0097    6  0.0097    7  0.1800
    7  0.1800    8  0.0097    8  0.0097    9  0.1800    9  0.1800   10  0.0097
   10  0.0097   11  0.0873

  ReaxFF: Bond Order sigma prime: 

   1    2  0.0024    2  0.0024    2  0.0024    2  0.0024    3  0.0024    3  0.0024
    3  0.0024    3  0.0024    4  0.0024    4  0.0024    4  0.0024    4  0.0024
    5  0.2404    6  0.2404    7  0.0108    7  0.8651    8  0.8651    8  0.0108
    9  0.0108    9  0.8651   10  0.8651   10  0.0108   11  0.0108   11  0.8651
   12  0.8651   12  0.0108
   2    1  0.0024    1  0.0024    1  0.0024    1  0.0024    3  0.0024    3  0.0024
    3  0.0024    3  0.0024    4  0.0024    4  0.0024    4  0.0024    4  0.0024
    5  0.8651    5  0.0108    6  0.0108    6  0.8651    7  0.2404    8  0.2404
    9  0.8651    9  0.0108   10  0.0108   10  0.8651   11  0.0108   11  0.8651
   12  0.8651   12  0.0108
   3    1  0.0024    1  0.0024    1  0.0024    1  0.0024    2  0.0024    2  0.0024
    2  0.0024    2  0.0024    4  0.0024    4  0.0024    4  0.0024    4  0.0024
    5  0.8651    5  0.0108    6  0.0108    6  0.8651    7  0.0108    7  0.8651
    8  0.8651    8  0.0108    9  0.2404   10  0.2404   11  0.8651   11  0.0108
   12  0.0108   12  0.8651
   4    1  0.0024    1  0.0024    1  0.0024    1  0.0024    2  0.0024    2  0.0024
    2  0.0024    2  0.0024    3  0.0024    3  0.0024    3  0.0024    3  0.0024
    5  0.8651    5  0.0108    6  0.0108    6  0.8651    7  0.8651    7  0.0108
    8  0.0108    8  0.8651    9  0.0108    9  0.8651   10  0.8651   10  0.0108
   11  0.2404   12  0.2404
   5    1  0.2404    2  0.8651    2  0.0108    3  0.8651    3  0.0108    4  0.8651
    4  0.0108    6  0.0873    7  0.0097    7  0.0097    8  0.1800    8  0.1800
    9  0.0097    9  0.0097   10  0.1800   10  0.1800   11  0.0097   11  0.0097
   12  0.1800   12  0.1800
   6    1  0.2404    2  0.0108    2  0.8651    3  0.0108    3  0.8651    4  0.0108
    4  0.8651    5  0.0873    7  0.1800    7  0.1800    8  0.0097    8  0.0097
    9  0.1800    9  0.1800   10  0.0097   10  0.0097   11  0.1800   11  0.1800
   12  0.0097   12  0.0097
   7    1  0.0108    1  0.8651    2  0.2404    3  0.0108    3  0.8651    4  0.8651
    4  0.0108    5  0.0097    5  0.0097    6  0.1800    6  0.1800    8  0.0873
    9  0.0097    9  0.0097   10  0.1800   10  0.1800   11  0.0097   11  0.0097
   12  0.1800   12  0.1800
   8    1  0.8651    1  0.0108    2  0.2404    3  0.8651    3  0.0108    4  0.0108
    4  0.8651    5  0.1800    5  0.1800    6  0.0097    6  0.0097    7  0.0873
    9  0.1800    9  0.1800   10  0.0097   10  0.0097   11  0.1800   11  0.1800
   12  0.0097   12  0.0097
   9    1  0.0108    1  0.8651    2  0.8651    2  0.0108    3  0.2404    4  0.0108
    4  0.8651    5  0.0097    5  0.0097    6  0.1800    6  0.1800    7  0.0097
    7  0.0097    8  0.1800    8  0.1800   10  0.0873   11  0.0097   11  0.0097
   12  0.1800   12  0.1800
  10    1  0.8651    1  0.0108    2  0.0108    2  0.8651    3  0.2404    4  0.8651
    4  0.0108    5  0.1800    5  0.1800    6  0.0097    6  0.0097    7  0.1800
    7  0.1800    8  0.0097    8  0.0097    9  0.0873   11  0.1800   11  0.1800
   12  0.0097   12  0.0097
  11    1  0.0108    1  0.8651    2  0.0108    2  0.8651    3  0.8651    3  0.0108
    4  0.2404    5  0.0097    5  0.0097    6  0.1800    6  0.1800    7  0.0097
    7  0.0097    8  0.1800    8  0.1800    9  0.0097    9  0.0097   10  0.1800
   10  0.1800   12  0.0873
  12    1  0.8651    1  0.0108    2  0.8651    2  0.0108    3  0.0108    3  0.8651
    4  0.2404    5  0.1800    5  0.1800    6  0.0097    6  0.0097    7  0.1800
    7  0.1800    8  0.0097    8  0.0097    9  0.1800    9  0.1800   10  0.0097
   10  0.0097   11  0.0873

  ReaxFF: Bond Order pi prime: 

   1    2  0.0000    2  0.0000    2  0.0000    2  0.0000    3  0.0000    3  0.0000
    3  0.0000    3  0.0000    4  0.0000    4  0.0000    4  0.0000    4  0.0000
    5  0.0000    6  0.0000    7  0.0000    7  0.0000    8  0.0000    8  0.0000
    9  0.0000    9  0.0000   10  0.0000   10  0.0000   11  0.0000   11  0.0000
   12  0.0000   12  0.0000
   2    1  0.0000    1  0.0000    1  0.0000    1  0.0000    3  0.0000    3  0.0000
    3  0.0000    3  0.0000    4  0.0000    4  0.0000    4  0.0000    4  0.0000
    5  0.0000    5  0.0000    6  0.0000    6  0.0000    7  0.0000    8  0.0000
    9  0.0000    9  0.0000   10  0.0000   10  0.0000   11  0.0000   11  0.0000
   12  0.0000   12  0.0000
   3    1  0.0000    1  0.0000    1  0.0000    1  0.0000    2  0.0000    2  0.0000
    2  0.0000    2  0.0000    4  0.0000    4  0.0000    4  0.0000    4  0.0000
    5  0.0000    5  0.0000    6  0.0000    6  0.0000    7  0.0000    7  0.0000
    8  0.0000    8  0.0000    9  0.0000   10  0.0000   11  0.0000   11  0.0000
   12  0.0000   12  0.0000
   4    1  0.0000    1  0.0000    1  0.0000    1  0.0000    2  0.0000    2  0.0000
    2  0.0000    2  0.0000    3  0.0000    3  0.0000    3  0.0000    3  0.0000
    5  0.0000    5  0.0000    6  0.0000    6  0.0000    7  0.0000    7  0.0000
    8  0.0000    8  0.0000    9  0.0000    9  0.0000   10  0.0000   10  0.0000
   11  0.0000   12  0.0000
   5    1  0.0000    2  0.0000    2  0.0000    3  0.0000    3  0.0000    4  0.0000
    4  0.0000    6  0.0000    7  0.0000    7  0.0000    8  0.0000    8  0.0000
    9  0.0000    9  0.0000   10  0.0000   10  0.0000   11  0.0000   11  0.0000
   12  0.0000   12  0.0000
   6    1  0.0000    2  0.0000    2  0.0000    3  0.0000    3  0.0000    4  0.0000
    4  0.0000    5  0.0000    7  0.0000    7  0.0000    8  0.0000    8  0.0000
    9  0.0000    9  0.0000   10  0.0000   10  0.0000   11  0.0000   11  0.0000
   12  0.0000   12  0.0000
   7    1  0.0000    1  0.0000    2  0.0000    3  0.0000    3  0.0000    4  0.0000
    4  0.0000    5  0.0000    5  0.0000    6  0.0000    6  0.0000    8  0.0000
    9  0.0000    9  0.0000   10  0.0000   10  0.0000   11  0.0000   11  0.0000
   12  0.0000   12  0.0000
   8    1  0.0000    1  0.0000    2  0.0000    3  0.0000    3  0.0000    4  0.0000
    4  0.0000    5  0.0000    5  0.0000    6  0.0000    6  0.0000    7  0.0000
    9  0.0000    9  0.0000   10  0.0000   10  0.0000   11  0.0000   11  0.0000
   12  0.0000   12  0.0000
   9    1  0.0000    1  0.0000    2  0.0000    2  0.0000    3  0.0000    4  0.0000
    4  0.0000    5  0.0000    5  0.0000    6  0.0000    6  0.0000    7  0.0000
    7  0.0000    8  0.0000    8  0.0000   10  0.0000   11  0.0000   11  0.0000
   12  0.0000   12  0.0000
  10    1  0.0000    1  0.0000    2  0.0000    2  0.0000    3  0.0000    4  0.0000
    4  0.0000    5  0.0000    5  0.0000    6  0.0000    6  0.0000    7  0.0000
    7  0.0000    8  0.0000    8  0.0000    9  0.0000   11  0.0000   11  0.0000
   12  0.0000   12  0.0000
  11    1  0.0000    1  0.0000    2  0.0000    2  0.0000    3  0.0000    3  0.0000
    4  0.0000    5  0.0000    5  0.0000    6  0.0000    6  0.0000    7  0.0000
    7  0.0000    8  0.0000    8  0.0000    9  0.0000    9  0.0000   10  0.0000
   10  0.0000   12  0.0000
  12    1  0.0000    1  0.0000    2  0.0000    2  0.0000    3  0.0000    3  0.0000
    4  0.0000    5  0.0000    5  0.0000    6  0.0000    6  0.0000    7  0.0000
    7  0.0000    8  0.0000    8  0.0000    9  0.0000    9  0.0000   10  0.0000
   10  0.0000   11  0.0000

  ReaxFF: Bond Order pi-pi prime: 

   1    2  0.0000    2  0.0000    2  0.0000    2  0.0000    3  0.0000    3  0.0000
    3  0.0000    3  0.0000    4  0.0000    4  0.0000    4  0.0000    4  0.0000
    5  0.0000    6  0.0000    7  0.0000    7  0.0000    8  0.0000    8  0.0000
    9  0.0000    9  0.0000   10  0.0000   10  0.0000   11  0.0000   11  0.0000
   12  0.0000   12  0.0000
   2    1  0.0000    1  0.0000    1  0.0000    1  0.0000    3  0.0000    3  0.0000
    3  0.0000    3  0.0000    4  0.0000    4  0.0000    4  0.0000    4  0.0000
    5  0.0000    5  0.0000    6  0.0000    6  0.0000    7  0.0000    8  0.0000
    9  0.0000    9  0.0000   10  0.0000   10  0.0000   11  0.0000   11  0.0000
   12  0.0000   12  0.0000
   3    1  0.0000    1  0.0000    1  0.0000    1  0.0000    2  0.0000    2  0.0000
    2  0.0000    2  0.0000    4  0.0000    4  0.0000    4  0.0000    4  0.0000
    5  0.0000    5  0.0000    6  0.0000    6  0.0000    7  0.0000    7  0.0000
    8  0.0000    8  0.0000    9  0.0000   10  0.0000   11  0.0000   11  0.0000
   12  0.0000   12  0.0000
   4    1  0.0000    1  0.0000    1  0.0000    1  0.0000    2  0.0000    2  0.0000
    2  0.0000    2  0.0000    3  0.0000    3  0.0000    3  0.0000    3  0.0000
    5  0.0000    5  0.0000    6  0.0000    6  0.0000    7  0.0000    7  0.0000
    8  0.0000    8  0.0000    9  0.0000    9  0.0000   10  0.0000   10  0.0000
   11  0.0000   12  0.0000
   5    1  0.0000    2  0.0000    2  0.0000    3  0.0000    3  0.0000    4  0.0000
    4  0.0000    6  0.0000    7  0.0000    7  0.0000    8  0.0000    8  0.0000
    9  0.0000    9  0.0000   10  0.0000   10  0.0000   11  0.0000   11  0.0000
   12  0.0000   12  0.0000
   6    1  0.0000    2  0.0000    2  0.0000    3  0.0000    3  0.0000    4  0.0000
    4  0.0000    5  0.0000    7  0.0000    7  0.0000    8  0.0000    8  0.0000
    9  0.0000    9  0.0000   10  0.0000   10  0.0000   11  0.0000   11  0.0000
   12  0.0000   12  0.0000
   7    1  0.0000    1  0.0000    2  0.0000    3  0.0000    3  0.0000    4  0.0000
    4  0.0000    5  0.0000    5  0.0000    6  0.0000    6  0.0000    8  0.0000
    9  0.0000    9  0.0000   10  0.0000   10  0.0000   11  0.0000   11  0.0000
   12  0.0000   12  0.0000
   8    1  0.0000    1  0.0000    2  0.0000    3  0.0000    3  0.0000    4  0.0000
    4  0.0000    5  0.0000    5  0.0000    6  0.0000    6  0.0000    7  0.0000
    9  0.0000    9  0.0000   10  0.0000   10  0.0000   11  0.0000   11  0.0000
   12  0.0000   12  0.0000
   9    1  0.0000    1  0.0000    2  0.0000    2  0.0000    3  0.0000    4  0.0000
    4  0.0000    5  0.0000    5  0.0000    6  0.0000    6  0.0000    7  0.0000
    7  0.0000    8  0.0000    8  0.0000   10  0.0000   11  0.0000   11  0.0000
   12  0.0000   12  0.0000
  10    1  0.0000    1  0.0000    2  0.0000    2  0.0000    3  0.0000    4  0.0000
    4  0.0000    5  0.0000    5  0.0000    6  0.0000    6  0.0000    7  0.0000
    7  0.0000    8  0.0000    8  0.0000    9  0.0000   11  0.0000   11  0.0000
   12  0.0000   12  0.0000
  11    1  0.0000    1  0.0000    2  0.0000    2  0.0000    3  0.0000    3  0.0000
    4  0.0000    5  0.0000    5  0.0000    6  0.0000    6  0.0000    7  0.0000
    7  0.0000    8  0.0000    8  0.0000    9  0.0000    9  0.0000   10  0.0000
   10  0.0000   12  0.0000
  12    1  0.0000    1  0.0000    2  0.0000    2  0.0000    3  0.0000    3  0.0000
    4  0.0000    5  0.0000    5  0.0000    6  0.0000    6  0.0000    7  0.0000
    7  0.0000    8  0.0000    8  0.0000    9  0.0000    9  0.0000   10  0.0000
   10  0.0000   11  0.0000



  ReaxFF: Delta and Bond Order: 

   1  2.764770    2  0.0024    2  0.0024    2  0.0024    2  0.0024    3  0.0024    3  0.0024
    3  0.0024    3  0.0024    4  0.0024    4  0.0024    4  0.0024    4  0.0024
    5  0.2404    6  0.2404    7  0.0108    7  0.8651    8  0.8651    8  0.0108
    9  0.0108    9  0.8651   10  0.8651   10  0.0108   11  0.0108   11  0.8651
   12  0.8651   12  0.0108
   2  2.764770    1  0.0024    1  0.0024    1  0.0024    1  0.0024    3  0.0024    3  0.0024
    3  0.0024    3  0.0024    4  0.0024    4  0.0024    4  0.0024    4  0.0024
    5  0.8651    5  0.0108    6  0.0108    6  0.8651    7  0.2404    8  0.2404
    9  0.8651    9  0.0108   10  0.0108   10  0.8651   11  0.0108   11  0.8651
   12  0.8651   12  0.0108
   3  2.764770    1  0.0024    1  0.0024    1  0.0024    1  0.0024    2  0.0024    2  0.0024
    2  0.0024    2  0.0024    4  0.0024    4  0.0024    4  0.0024    4  0.0024
    5  0.8651    5  0.0108    6  0.0108    6  0.8651    7  0.0108    7  0.8651
    8  0.8651    8  0.0108    9  0.2404   10  0.2404   11  0.8651   11  0.0108
   12  0.0108   12  0.8651
   4  2.764770    1  0.0024    1  0.0024    1  0.0024    1  0.0024    2  0.0024    2  0.0024
    2  0.0024    2  0.0024    3  0.0024    3  0.0024    3  0.0024    3  0.0024
    5  0.8651    5  0.0108    6  0.0108    6  0.8651    7  0.8651    7  0.0108
    8  0.0108    8  0.8651    9  0.0108    9  0.8651   10  0.8651   10  0.0108
   11  0.2404   12  0.2404
   5  1.466869    1  0.2404    2  0.8651    2  0.0108    3  0.8651    3  0.0108    4  0.8651
    4  0.0108    6  0.0426    7  0.0048    7  0.0048    8  0.0879    8  0.0879
    9  0.0048    9  0.0048   10  0.0879   10  0.0879   11  0.0048   11  0.0048
   12  0.0879   12  0.0879
   6  1.466869    1  0.2404    2  0.0108    2  0.8651    3  0.0108    3  0.8651    4  0.0108
    4  0.8651    5  0.0426    7  0.0879    7  0.0879    8  0.0048    8  0.0048
    9  0.0879    9  0.0879   10  0.0048   10  0.0048   11  0.0879   11  0.0879
   12  0.0048   12  0.0048
   7  1.466869    1  0.0108    1  0.8651    2  0.2404    3  0.0108    3  0.8651    4  0.8651
    4  0.0108    5  0.0048    5  0.0048    6  0.0879    6  0.0879    8  0.0426
    9  0.0048    9  0.0048   10  0.0879   10  0.0879   11  0.0048   11  0.0048
   12  0.0879   12  0.0879
   8  1.466869    1  0.8651    1  0.0108    2  0.2404    3  0.8651    3  0.0108    4  0.0108
    4  0.8651    5  0.0879    5  0.0879    6  0.0048    6  0.0048    7  0.0426
    9  0.0879    9  0.0879   10  0.0048   10  0.0048   11  0.0879   11  0.0879
   12  0.0048   12  0.0048
   9  1.466869    1  0.0108    1  0.8651    2  0.8651    2  0.0108    3  0.2404    4  0.0108
    4  0.8651    5  0.0048    5  0.0048    6  0.0879    6  0.0879    7  0.0048
    7  0.0048    8  0.0879    8  0.0879   10  0.0426   11  0.0048   11  0.0048
   12  0.0879   12  0.0879
  10  1.466869    1  0.8651    1  0.0108    2  0.0108    2  0.8651    3  0.2404    4  0.8651
    4  0.0108    5  0.0879    5  0.0879    6  0.0048    6  0.0048    7  0.0879
    7  0.0879    8  0.0048    8  0.0048    9  0.0426   11  0.0879   11  0.0879
   12  0.0048   12  0.0048
  11  1.466869    1  0.0108    1  0.8651    2  0.0108    2  0.8651    3  0.8651    3  0.0108
    4  0.2404    5  0.0048    5  0.0048    6  0.0879    6  0.0879    7  0.0048
    7  0.0048    8  0.0879    8  0.0879    9  0.0048    9  0.0048   10  0.0879
   10  0.0879   12  0.0426
  12  1.466869    1  0.8651    1  0.0108    2  0.8651    2  0.0108    3  0.0108    3  0.8651
    4  0.2404    5  0.0879    5  0.0879    6  0.0048    6  0.0048    7  0.0879
    7  0.0879    8  0.0048    8  0.0048    9  0.0879    9  0.0879   10  0.0048
   10  0.0048   11  0.0426

  ReaxFF: Delta lone pair: 

   1  1.000000
   2  1.000000
   3  1.000000
   4  1.000000
   5  0.999998
   6  0.999998
   7  0.999998
   8  0.999998
   9  0.999998
  10  0.999998
  11  0.999998
  12  0.999998


  ReaxFF : Energy contributions: 

  E(bond)     =     -78.23660866 eV =    -1804.1674905 kcal
  E(bpen)     =       0.00000000 eV =        0.0000000 kcal
  E(lonepair) =       1.21399347 eV =       27.9951750 kcal
  E(over)     =      12.78993990 eV =      294.9411301 kcal
  E(under)    =       0.00000000 eV =        0.0000000 kcal
  E(val)      =      16.69159999 eV =      384.9149723 kcal
  E(pen)      =       0.00000000 eV =        0.0000000 kcal
  E(coa)      =       0.00000000 eV =        0.0000000 kcal
  E(tors)     =       2.37222583 eV =       54.7044766 kcal
  E(conj)     =       0.00000000 eV =        0.0000000 kcal
  E(hb)       =       0.00000000 eV =        0.0000000 kcal
  E(vdw)      =       6.41369507 eV =      147.9023739 kcal
  E(coulomb)  =      -3.34422152 eV =      -77.1190860 kcal
  E(self)     =      -0.10608718 eV =       -2.4464129 kcal
  Cycle:      0 Energy:       -42.205463  Gnorm:      5.057967  CPU:    0.040
  ** Cosine =   1.000000

  ReaxFF: Delta and Bond Order prime: 

   1  2.674575    2  0.0018    2  0.0018    2  0.0018    2  0.0018    3  0.0018    3  0.0018
    3  0.0018    3  0.0018    4  0.0018    4  0.0018    4  0.0018    4  0.0018
    5  0.2087    6  0.2087    7  0.0116    7  0.8610    8  0.8610    8  0.0116
    9  0.0116    9  0.8610   10  0.8610   10  0.0116   11  0.0116   11  0.8610
   12  0.8610   12  0.0116
   2  2.674575    1  0.0018    1  0.0018    1  0.0018    1  0.0018    3  0.0018    3  0.0018
    3  0.0018    3  0.0018    4  0.0018    4  0.0018    4  0.0018    4  0.0018
    5  0.8610    5  0.0116    6  0.0116    6  0.8610    7  0.2087    8  0.2087
    9  0.8610    9  0.0116   10  0.0116   10  0.8610   11  0.0116   11  0.8610
   12  0.8610   12  0.0116
   3  2.674575    1  0.0018    1  0.0018    1  0.0018    1  0.0018    2  0.0018    2  0.0018
    2  0.0018    2  0.0018    4  0.0018    4  0.0018    4  0.0018    4  0.0018
    5  0.8610    5  0.0116    6  0.0116    6  0.8610    7  0.0116    7  0.8610
    8  0.8610    8  0.0116    9  0.2087   10  0.2087   11  0.8610   11  0.0116
   12  0.0116   12  0.8610
   4  2.674575    1  0.0018    1  0.0018    1  0.0018    1  0.0018    2  0.0018    2  0.0018
    2  0.0018    2  0.0018    3  0.0018    3  0.0018    3  0.0018    3  0.0018
    5  0.8610    5  0.0116    6  0.0116    6  0.8610    7  0.8610    7  0.0116
    8  0.0116    8  0.8610    9  0.0116    9  0.8610   10  0.8610   10  0.0116
   11  0.2087   12  0.2087
   5  1.970350    1  0.2087    2  0.8610    2  0.0116    3  0.8610    3  0.0116    4  0.8610
    4  0.0116    6  0.1112    7  0.0091    7  0.0091    8  0.1630    8  0.1630
    9  0.0091    9  0.0091   10  0.1630   10  0.1630   11  0.0091   11  0.0091
   12  0.1630   12  0.1630
   6  1.970350    1  0.2087    2  0.0116    2  0.8610    3  0.0116    3  0.8610    4  0.0116
    4  0.8610    5  0.1112    7  0.1630    7  0.1630    8  0.0091    8  0.0091
    9  0.1630    9  0.1630   10  0.0091   10  0.0091   11  0.1630   11  0.1630
   12  0.0091   12  0.0091
   7  1.970350    1  0.0116    1  0.8610    2  0.2087    3  0.0116    3  0.8610    4  0.8610
    4  0.0116    5  0.0091    5  0.0091    6  0.1630    6  0.1630    8  0.1112
    9  0.0091    9  0.0091   10  0.1630   10  0.1630   11  0.0091   11  0.0091
   12  0.1630   12  0.1630
   8  1.970350    1  0.8610    1  0.0116    2  0.2087    3  0.8610    3  0.0116    4  0.0116
    4  0.8610    5  0.1630    5  0.1630    6  0.0091    6  0.0091    7  0.1112
    9  0.1630    9  0.1630   10  0.0091   10  0.0091   11  0.1630   11  0.1630
   12  0.0091   12  0.0091
   9  1.970350    1  0.0116    1  0.8610    2  0.8610    2  0.0116    3  0.2087    4  0.0116
    4  0.8610    5  0.0091    5  0.0091    6  0.1630    6  0.1630    7  0.0091
    7  0.0091    8  0.1630    8  0.1630   10  0.1112   11  0.0091   11  0.0091
   12  0.1630   12  0.1630
  10  1.970350    1  0.8610    1  0.0116    2  0.0116    2  0.8610    3  0.2087    4  0.8610
    4  0.0116    5  0.1630    5  0.1630    6  0.0091    6  0.0091    7  0.1630
    7  0.1630    8  0.0091    8  0.0091    9  0.1112   11  0.1630   11  0.1630
   12  0.0091   12  0.0091
  11  1.970350    1  0.0116    1  0.8610    2  0.0116    2  0.8610    3  0.8610    3  0.0116
    4  0.2087    5  0.0091    5  0.0091    6  0.1630    6  0.1630    7  0.0091
    7  0.0091    8  0.1630    8  0.1630    9  0.0091    9  0.0091   10  0.1630
   10  0.1630   12  0.1112
  12  1.970350    1  0.8610    1  0.0116    2  0.8610    2  0.0116    3  0.0116    3  0.8610
    4  0.2087    5  0.1630    5  0.1630    6  0.0091    6  0.0091    7  0.1630
    7  0.1630    8  0.0091    8  0.0091    9  0.1630    9  0.1630   10  0.0091
   10  0.0091   11  0.1112

  ReaxFF: Bond Order sigma prime: 

   1    2  0.0018    2  0.0018    2  0.0018    2  0.0018    3  0.0018    3  0.0018
    3  0.0018    3  0.0018    4  0.0018    4  0.0018    4  0.0018    4  0.0018
    5  0.2087    6  0.2087    7  0.0116    7  0.8610    8  0.8610    8  0.0116
    9  0.0116    9  0.8610   10  0.8610   10  0.0116   11  0.0116   11  0.8610
   12  0.8610   12  0.0116
   2    1  0.0018    1  0.0018    1  0.0018    1  0.0018    3  0.0018    3  0.0018
    3  0.0018    3  0.0018    4  0.0018    4  0.0018    4  0.0018    4  0.0018
    5  0.8610    5  0.0116    6  0.0116    6  0.8610    7  0.2087    8  0.2087
    9  0.8610    9  0.0116   10  0.0116   10  0.8610   11  0.0116   11  0.8610
   12  0.8610   12  0.0116
   3    1  0.0018    1  0.0018    1  0.0018    1  0.0018    2  0.0018    2  0.0018
    2  0.0018    2  0.0018    4  0.0018    4  0.0018    4  0.0018    4  0.0018
    5  0.8610    5  0.0116    6  0.0116    6  0.8610    7  0.0116    7  0.8610
    8  0.8610    8  0.0116    9  0.2087   10  0.2087   11  0.8610   11  0.0116
   12  0.0116   12  0.8610
   4    1  0.0018    1  0.0018    1  0.0018    1  0.0018    2  0.0018    2  0.0018
    2  0.0018    2  0.0018    3  0.0018    3  0.0018    3  0.0018    3  0.0018
    5  0.8610    5  0.0116    6  0.0116    6  0.8610    7  0.8610    7  0.0116
    8  0.0116    8  0.8610    9  0.0116    9  0.8610   10  0.8610   10  0.0116
   11  0.2087   12  0.2087
   5    1  0.2087    2  0.8610    2  0.0116    3  0.8610    3  0.0116    4  0.8610
    4  0.0116    6  0.1112    7  0.0091    7  0.0091    8  0.1630    8  0.1630
    9  0.0091    9  0.0091   10  0.1630   10  0.1630   11  0.0091   11  0.0091
   12  0.1630   12  0.1630
   6    1  0.2087    2  0.0116    2  0.8610    3  0.0116    3  0.8610    4  0.0116
    4  0.8610    5  0.1112    7  0.1630    7  0.1630    8  0.0091    8  0.0091
    9  0.1630    9  0.1630   10  0.0091   10  0.0091   11  0.1630   11  0.1630
   12  0.0091   12  0.0091
   7    1  0.0116    1  0.8610    2  0.2087    3  0.0116    3  0.8610    4  0.8610
    4  0.0116    5  0.0091    5  0.0091    6  0.1630    6  0.1630    8  0.1112
    9  0.0091    9  0.0091   10  0.1630   10  0.1630   11  0.0091   11  0.0091
   12  0.1630   12  0.1630
   8    1  0.8610    1  0.0116    2  0.2087    3  0.8610    3  0.0116    4  0.0116
    4  0.8610    5  0.1630    5  0.1630    6  0.0091    6  0.0091    7  0.1112
    9  0.1630    9  0.1630   10  0.0091   10  0.0091   11  0.1630   11  0.1630
   12  0.0091   12  0.0091
   9    1  0.0116    1  0.8610    2  0.8610    2  0.0116    3  0.2087    4  0.0116
    4  0.8610    5  0.0091    5  0.0091    6  0.1630    6  0.1630    7  0.0091
    7  0.0091    8  0.1630    8  0.1630   10  0.1112   11  0.0091   11  0.0091
   12  0.1630   12  0.1630
  10    1  0.8610    1  0.0116    2  0.0116    2  0.8610    3  0.2087    4  0.8610
    4  0.0116    5  0.1630    5  0.1630    6  0.0091    6  0.0091    7  0.1630
    7  0.1630    8  0.0091    8  0.0091    9  0.1112   11  0.1630   11  0.1630
   12  0.0091   12  0.0091
  11    1  0.0116    1  0.8610    2  0.0116    2  0.8610    3  0.8610    3  0.0116
    4  0.2087    5  0.0091    5  0.0091    6  0.1630    6  0.1630    7  0.0091
    7  0.0091    8  0.1630    8  0.1630    9  0.0091    9  0.0091   10  0.1630
   10  0.1630   12  0.1112
  12    1  0.8610    1  0.0116    2  0.8610    2  0.0116    3  0.0116    3  0.8610
    4  0.2087    5  0.1630    5  0.1630    6  0.0091    6  0.0091    7  0.1630
    7  0.1630    8  0.0091    8  0.0091    9  0.1630    9  0.1630   10  0.0091
   10  0.0091   11  0.1112

  ReaxFF: Bond Order pi prime: 

   1    2  0.0000    2  0.0000    2  0.0000    2  0.0000    3  0.0000    3  0.0000
    3  0.0000    3  0.0000    4  0.0000    4  0.0000    4  0.0000    4  0.0000
    5  0.0000    6  0.0000    7  0.0000    7  0.0000    8  0.0000    8  0.0000
    9  0.0000    9  0.0000   10  0.0000   10  0.0000   11  0.0000   11  0.0000
   12  0.0000   12  0.0000
   2    1  0.0000    1  0.0000    1  0.0000    1  0.0000    3  0.0000    3  0.0000
    3  0.0000    3  0.0000    4  0.0000    4  0.0000    4  0.0000    4  0.0000
    5  0.0000    5  0.0000    6  0.0000    6  0.0000    7  0.0000    8  0.0000
    9  0.0000    9  0.0000   10  0.0000   10  0.0000   11  0.0000   11  0.0000
   12  0.0000   12  0.0000
   3    1  0.0000    1  0.0000    1  0.0000    1  0.0000    2  0.0000    2  0.0000
    2  0.0000    2  0.0000    4  0.0000    4  0.0000    4  0.0000    4  0.0000
    5  0.0000    5  0.0000    6  0.0000    6  0.0000    7  0.0000    7  0.0000
    8  0.0000    8  0.0000    9  0.0000   10  0.0000   11  0.0000   11  0.0000
   12  0.0000   12  0.0000
   4    1  0.0000    1  0.0000    1  0.0000    1  0.0000    2  0.0000    2  0.0000
    2  0.0000    2  0.0000    3  0.0000    3  0.0000    3  0.0000    3  0.0000
    5  0.0000    5  0.0000    6  0.0000    6  0.0000    7  0.0000    7  0.0000
    8  0.0000    8  0.0000    9  0.0000    9  0.0000   10  0.0000   10  0.0000
   11  0.0000   12  0.0000
   5    1  0.0000    2  0.0000    2  0.0000    3  0.0000    3  0.0000    4  0.0000
    4  0.0000    6  0.0000    7  0.0000    7  0.0000    8  0.0000    8  0.0000
    9  0.0000    9  0.0000   10  0.0000   10  0.0000   11  0.0000   11  0.0000
   12  0.0000   12  0.0000
   6    1  0.0000    2  0.0000    2  0.0000    3  0.0000    3  0.0000    4  0.0000
    4  0.0000    5  0.0000    7  0.0000    7  0.0000    8  0.0000    8  0.0000
    9  0.0000    9  0.0000   10  0.0000   10  0.0000   11  0.0000   11  0.0000
   12  0.0000   12  0.0000
   7    1  0.0000    1  0.0000    2  0.0000    3  0.0000    3  0.0000    4  0.0000
    4  0.0000    5  0.0000    5  0.0000    6  0.0000    6  0.0000    8  0.0000
    9  0.0000    9  0.0000   10  0.0000   10  0.0000   11  0.0000   11  0.0000
   12  0.0000   12  0.0000
   8    1  0.0000    1  0.0000    2  0.0000    3  0.0000    3  0.0000    4  0.0000
    4  0.0000    5  0.0000    5  0.0000    6  0.0000    6  0.0000    7  0.0000
    9  0.0000    9  0.0000   10  0.0000   10  0.0000   11  0.0000   11  0.0000
   12  0.0000   12  0.0000
   9    1  0.0000    1  0.0000    2  0.0000    2  0.0000    3  0.0000    4  0.0000
    4  0.0000    5  0.0000    5  0.0000    6  0.0000    6  0.0000    7  0.0000
    7  0.0000    8  0.0000    8  0.0000   10  0.0000   11  0.0000   11  0.0000
   12  0.0000   12  0.0000
  10    1  0.0000    1  0.0000    2  0.0000    2  0.0000    3  0.0000    4  0.0000
    4  0.0000    5  0.0000    5  0.0000    6  0.0000    6  0.0000    7  0.0000
    7  0.0000    8  0.0000    8  0.0000    9  0.0000   11  0.0000   11  0.0000
   12  0.0000   12  0.0000
  11    1  0.0000    1  0.0000    2  0.0000    2  0.0000    3  0.0000    3  0.0000
    4  0.0000    5  0.0000    5  0.0000    6  0.0000    6  0.0000    7  0.0000
    7  0.0000    8  0.0000    8  0.0000    9  0.0000    9  0.0000   10  0.0000
   10  0.0000   12  0.0000
  12    1  0.0000    1  0.0000    2  0.0000    2  0.0000    3  0.0000    3  0.0000
    4  0.0000    5  0.0000    5  0.0000    6  0.0000    6  0.0000    7  0.0000
    7  0.0000    8  0.0000    8  0.0000    9  0.0000    9  0.0000   10  0.0000
   10  0.0000   11  0.0000

  ReaxFF: Bond Order pi-pi prime: 

   1    2  0.0000    2  0.0000    2  0.0000    2  0.0000    3  0.0000    3  0.0000
    3  0.0000    3  0.0000    4  0.0000    4  0.0000    4  0.0000    4  0.0000
    5  0.0000    6  0.0000    7  0.0000    7  0.0000    8  0.0000    8  0.0000
    9  0.0000    9  0.0000   10  0.0000   10  0.0000   11  0.0000   11  0.0000
   12  0.0000   12  0.0000
   2    1  0.0000    1  0.0000    1  0.0000    1  0.0000    3  0.0000    3  0.0000
    3  0.0000    3  0.0000    4  0.0000    4  0.0000    4  0.0000    4  0.0000
    5  0.0000    5  0.0000    6  0.0000    6  0.0000    7  0.0000    8  0.0000
    9  0.0000    9  0.0000   10  0.0000   10  0.0000   11  0.0000   11  0.0000
   12  0.0000   12  0.0000
   3    1  0.0000    1  0.0000    1  0.0000    1  0.0000    2  0.0000    2  0.0000
    2  0.0000    2  0.0000    4  0.0000    4  0.0000    4  0.0000    4  0.0000
    5  0.0000    5  0.0000    6  0.0000    6  0.0000    7  0.0000    7  0.0000
    8  0.0000    8  0.0000    9  0.0000   10  0.0000   11  0.0000   11  0.0000
   12  0.0000   12  0.0000
   4    1  0.0000    1  0.0000    1  0.0000    1  0.0000    2  0.0000    2  0.0000
    2  0.0000    2  0.0000    3  0.0000    3  0.0000    3  0.0000    3  0.0000
    5  0.0000    5  0.0000    6  0.0000    6  0.0000    7  0.0000    7  0.0000
    8  0.0000    8  0.0000    9  0.0000    9  0.0000   10  0.0000   10  0.0000
   11  0.0000   12  0.0000
   5    1  0.0000    2  0.0000    2  0.0000    3  0.0000    3  0.0000    4  0.0000
    4  0.0000    6  0.0000    7  0.0000    7  0.0000    8  0.0000    8  0.0000
    9  0.0000    9  0.0000   10  0.0000   10  0.0000   11  0.0000   11  0.0000
   12  0.0000   12  0.0000
   6    1  0.0000    2  0.0000    2  0.0000    3  0.0000    3  0.0000    4  0.0000
    4  0.0000    5  0.0000    7  0.0000    7  0.0000    8  0.0000    8  0.0000
    9  0.0000    9  0.0000   10  0.0000   10  0.0000   11  0.0000   11  0.0000
   12  0.0000   12  0.0000
   7    1  0.0000    1  0.0000    2  0.0000    3  0.0000    3  0.0000    4  0.0000
    4  0.0000    5  0.0000    5  0.0000    6  0.0000    6  0.0000    8  0.0000
    9  0.0000    9  0.0000   10  0.0000   10  0.0000   11  0.0000   11  0.0000
   12  0.0000   12  0.0000
   8    1  0.0000    1  0.0000    2  0.0000    3  0.0000    3  0.0000    4  0.0000
    4  0.0000    5  0.0000    5  0.0000    6  0.0000    6  0.0000    7  0.0000
    9  0.0000    9  0.0000   10  0.0000   10  0.0000   11  0.0000   11  0.0000
   12  0.0000   12  0.0000
   9    1  0.0000    1  0.0000    2  0.0000    2  0.0000    3  0.0000    4  0.0000
    4  0.0000    5  0.0000    5  0.0000    6  0.0000    6  0.0000    7  0.0000
    7  0.0000    8  0.0000    8  0.0000   10  0.0000   11  0.0000   11  0.0000
   12  0.0000   12  0.0000
  10    1  0.0000    1  0.0000    2  0.0000    2  0.0000    3  0.0000    4  0.0000
    4  0.0000    5  0.0000    5  0.0000    6  0.0000    6  0.0000    7  0.0000
    7  0.0000    8  0.0000    8  0.0000    9  0.0000   11  0.0000   11  0.0000
   12  0.0000   12  0.0000
  11    1  0.0000    1  0.0000    2  0.0000    2  0.0000    3  0.0000    3  0.0000
    4  0.0000    5  0.0000    5  0.0000    6  0.0000    6  0.0000    7  0.0000
    7  0.0000    8  0.0000    8  0.0000    9  0.0000    9  0.0000   10  0.0000
   10  0.0000   12  0.0000
  12    1  0.0000    1  0.0000    2  0.0000    2  0.0000    3  0.0000    3  0.0000
    4  0.0000    5  0.0000    5  0.0000    6  0.0000    6  0.0000    7  0.0000
    7  0.0000    8  0.0000    8  0.0000    9  0.0000    9  0.0000   10  0.0000
   10  0.0000   11  0.0000



  ReaxFF: Delta and Bond Order: 

   1  2.674575    2  0.0018    2  0.0018    2  0.0018    2  0.0018    3  0.0018    3  0.0018
    3  0.0018    3  0.0018    4  0.0018    4  0.0018    4  0.0018    4  0.0018
    5  0.2087    6  0.2087    7  0.0116    7  0.8610    8  0.8610    8  0.0116
    9  0.0116    9  0.8610   10  0.8610   10  0.0116   11  0.0116   11  0.8610
   12  0.8610   12  0.0116
   2  2.674575    1  0.0018    1  0.0018    1  0.0018    1  0.0018    3  0.0018    3  0.0018
    3  0.0018    3  0.0018    4  0.0018    4  0.0018    4  0.0018    4  0.0018
    5  0.8610    5  0.0116    6  0.0116    6  0.8610    7  0.2087    8  0.2087
    9  0.8610    9  0.0116   10  0.0116   10  0.8610   11  0.0116   11  0.8610
   12  0.8610   12  0.0116
   3  2.674575    1  0.0018    1  0.0018    1  0.0018    1  0.0018    2  0.0018    2  0.0018
    2  0.0018    2  0.0018    4  0.0018    4  0.0018    4  0.0018    4  0.0018
    5  0.8610    5  0.0116    6  0.0116    6  0.8610    7  0.0116    7  0.8610
    8  0.8610    8  0.0116    9  0.2087   10  0.2087   11  0.8610   11  0.0116
   12  0.0116   12  0.8610
   4  2.674575    1  0.0018    1  0.0018    1  0.0018    1  0.0018    2  0.0018    2  0.0018
    2  0.0018    2  0.0018    3  0.0018    3  0.0018    3  0.0018    3  0.0018
    5  0.8610    5  0.0116    6  0.0116    6  0.8610    7  0.8610    7  0.0116
    8  0.0116    8  0.8610    9  0.0116    9  0.8610   10  0.8610   10  0.0116
   11  0.2087   12  0.2087
   5  1.402689    1  0.2087    2  0.8610    2  0.0116    3  0.8610    3  0.0116    4  0.8610
    4  0.0116    6  0.0560    7  0.0046    7  0.0046    8  0.0821    8  0.0821
    9  0.0046    9  0.0046   10  0.0821   10  0.0821   11  0.0046   11  0.0046
   12  0.0821   12  0.0821
   6  1.402689    1  0.2087    2  0.0116    2  0.8610    3  0.0116    3  0.8610    4  0.0116
    4  0.8610    5  0.0560    7  0.0821    7  0.0821    8  0.0046    8  0.0046
    9  0.0821    9  0.0821   10  0.0046   10  0.0046   11  0.0821   11  0.0821
   12  0.0046   12  0.0046
   7  1.402689    1  0.0116    1  0.8610    2  0.2087    3  0.0116    3  0.8610    4  0.8610
    4  0.0116    5  0.0046    5  0.0046    6  0.0821    6  0.0821    8  0.0560
    9  0.0046    9  0.0046   10  0.0821   10  0.0821   11  0.0046   11  0.0046
   12  0.0821   12  0.0821
   8  1.402689    1  0.8610    1  0.0116    2  0.2087    3  0.8610    3  0.0116    4  0.0116
    4  0.8610    5  0.0821    5  0.0821    6  0.0046    6  0.0046    7  0.0560
    9  0.0821    9  0.0821   10  0.0046   10  0.0046   11  0.0821   11  0.0821
   12  0.0046   12  0.0046
   9  1.402689    1  0.0116    1  0.8610    2  0.8610    2  0.0116    3  0.2087    4  0.0116
    4  0.8610    5  0.0046    5  0.0046    6  0.0821    6  0.0821    7  0.0046
    7  0.0046    8  0.0821    8  0.0821   10  0.0560   11  0.0046   11  0.0046
   12  0.0821   12  0.0821
  10  1.402689    1  0.8610    1  0.0116    2  0.0116    2  0.8610    3  0.2087    4  0.8610
    4  0.0116    5  0.0821    5  0.0821    6  0.0046    6  0.0046    7  0.0821
    7  0.0821    8  0.0046    8  0.0046    9  0.0560   11  0.0821   11  0.0821
   12  0.0046   12  0.0046
  11  1.402689    1  0.0116    1  0.8610    2  0.0116    2  0.8610    3  0.8610    3  0.0116
    4  0.2087    5  0.0046    5  0.0046    6  0.0821    6  0.0821    7  0.0046
    7  0.0046    8  0.0821    8  0.0821    9  0.0046    9  0.0046   10  0.0821
   10  0.0821   12  0.0560
  12  1.402689    1  0.8610    1  0.0116    2  0.8610    2  0.0116    3  0.0116    3  0.8610
    4  0.2087    5  0.0821    5  0.0821    6  0.0046    6  0.0046    7  0.0821
    7  0.0821    8  0.0046    8  0.0046    9  0.0821    9  0.0821   10  0.0046
   10  0.0046   11  0.0560

  ReaxFF: Delta lone pair: 

   1  1.000000
   2  1.000000
   3  1.000000
   4  1.000000
   5  0.999994
   6  0.999994
   7  0.999994
   8  0.999994
   9  0.999994
  10  0.999994
  11  0.999994
  12  0.999994


  ReaxFF : Energy contributions: 

  E(bond)     =     -76.88085549 eV =    -1772.9032799 kcal
  E(bpen)     =       0.00000000 eV =        0.0000000 kcal
  E(lonepair) =       1.21398834 eV =       27.9950568 kcal
  E(over)     =      12.31040342 eV =      283.8828271 kcal
  E(under)    =       0.00000000 eV =        0.0000000 kcal
  E(val)      =      16.04466063 eV =      369.9962921 kcal
  E(pen)      =       0.00000000 eV =        0.0000000 kcal
  E(coa)      =       0.00000000 eV =        0.0000000 kcal
  E(tors)     =       2.18978403 eV =       50.4972955 kcal
  E(conj)     =       0.00000000 eV =        0.0000000 kcal
  E(hb)       =       0.00000000 eV =        0.0000000 kcal
  E(vdw)      =       6.05225478 eV =      139.5674160 kcal
  E(coulomb)  =      -3.31896579 eV =      -76.5366787 kcal
  E(self)     =      -0.12273377 eV =       -2.8302897 kcal

  ReaxFF: Delta and Bond Order prime: 

   1  2.587835    2  0.0013    2  0.0013    2  0.0013    2  0.0013    3  0.0013    3  0.0013
    3  0.0013    3  0.0013    4  0.0013    4  0.0013    4  0.0013    4  0.0013
    5  0.1789    6  0.1789    7  0.0124    7  0.8566    8  0.8566    8  0.0124
    9  0.0124    9  0.8566   10  0.8566   10  0.0124   11  0.0124   11  0.8566
   12  0.8566   12  0.0124
   2  2.587835    1  0.0013    1  0.0013    1  0.0013    1  0.0013    3  0.0013    3  0.0013
    3  0.0013    3  0.0013    4  0.0013    4  0.0013    4  0.0013    4  0.0013
    5  0.8566    5  0.0124    6  0.0124    6  0.8566    7  0.1789    8  0.1789
    9  0.8566    9  0.0124   10  0.0124   10  0.8566   11  0.0124   11  0.8566
   12  0.8566   12  0.0124
   3  2.587835    1  0.0013    1  0.0013    1  0.0013    1  0.0013    2  0.0013    2  0.0013
    2  0.0013    2  0.0013    4  0.0013    4  0.0013    4  0.0013    4  0.0013
    5  0.8566    5  0.0124    6  0.0124    6  0.8566    7  0.0124    7  0.8566
    8  0.8566    8  0.0124    9  0.1789   10  0.1789   11  0.8566   11  0.0124
   12  0.0124   12  0.8566
   4  2.587835    1  0.0013    1  0.0013    1  0.0013    1  0.0013    2  0.0013    2  0.0013
    2  0.0013    2  0.0013    3  0.0013    3  0.0013    3  0.0013    3  0.0013
    5  0.8566    5  0.0124    6  0.0124    6  0.8566    7  0.8566    7  0.0124
    8  0.0124    8  0.8566    9  0.0124    9  0.8566   10  0.8566   10  0.0124
   11  0.1789   12  0.1789
   5  1.855536    1  0.1789    2  0.8566    2  0.0124    3  0.8566    3  0.0124    4  0.8566
    4  0.0124    6  0.1391    7  0.0084    7  0.0084    8  0.1466    8  0.1466
    9  0.0084    9  0.0084   10  0.1466   10  0.1466   11  0.0084   11  0.0084
   12  0.1466   12  0.1466
   6  1.855536    1  0.1789    2  0.0124    2  0.8566    3  0.0124    3  0.8566    4  0.0124
    4  0.8566    5  0.1391    7  0.1466    7  0.1466    8  0.0084    8  0.0084
    9  0.1466    9  0.1466   10  0.0084   10  0.0084   11  0.1466   11  0.1466
   12  0.0084   12  0.0084
   7  1.855536    1  0.0124    1  0.8566    2  0.1789    3  0.0124    3  0.8566    4  0.8566
    4  0.0124    5  0.0084    5  0.0084    6  0.1466    6  0.1466    8  0.1391
    9  0.0084    9  0.0084   10  0.1466   10  0.1466   11  0.0084   11  0.0084
   12  0.1466   12  0.1466
   8  1.855536    1  0.8566    1  0.0124    2  0.1789    3  0.8566    3  0.0124    4  0.0124
    4  0.8566    5  0.1466    5  0.1466    6  0.0084    6  0.0084    7  0.1391
    9  0.1466    9  0.1466   10  0.0084   10  0.0084   11  0.1466   11  0.1466
   12  0.0084   12  0.0084
   9  1.855536    1  0.0124    1  0.8566    2  0.8566    2  0.0124    3  0.1789    4  0.0124
    4  0.8566    5  0.0084    5  0.0084    6  0.1466    6  0.1466    7  0.0084
    7  0.0084    8  0.1466    8  0.1466   10  0.1391   11  0.0084   11  0.0084
   12  0.1466   12  0.1466
  10  1.855536    1  0.8566    1  0.0124    2  0.0124    2  0.8566    3  0.1789    4  0.8566
    4  0.0124    5  0.1466    5  0.1466    6  0.0084    6  0.0084    7  0.1466
    7  0.1466    8  0.0084    8  0.0084    9  0.1391   11  0.1466   11  0.1466
   12  0.0084   12  0.0084
  11  1.855536    1  0.0124    1  0.8566    2  0.0124    2  0.8566    3  0.8566    3  0.0124
    4  0.1789    5  0.0084    5  0.0084    6  0.1466    6  0.1466    7  0.0084
    7  0.0084    8  0.1466    8  0.1466    9  0.0084    9  0.0084   10  0.1466
   10  0.1466   12  0.1391
  12  1.855536    1  0.8566    1  0.0124    2  0.8566    2  0.0124    3  0.0124    3  0.8566
    4  0.1789    5  0.1466    5  0.1466    6  0.0084    6  0.0084    7  0.1466
    7  0.1466    8  0.0084    8  0.0084    9  0.1466    9  0.1466   10  0.0084
   10  0.0084   11  0.1391

  ReaxFF: Bond Order sigma prime: 

   1    2  0.0013    2  0.0013    2  0.0013    2  0.0013    3  0.0013    3  0.0013
    3  0.0013    3  0.0013    4  0.0013    4  0.0013    4  0.0013    4  0.0013
    5  0.1789    6  0.1789    7  0.0124    7  0.8566    8  0.8566    8  0.0124
    9  0.0124    9  0.8566   10  0.8566   10  0.0124   11  0.0124   11  0.8566
   12  0.8566   12  0.0124
   2    1  0.0013    1  0.0013    1  0.0013    1  0.0013    3  0.0013    3  0.0013
    3  0.0013    3  0.0013    4  0.0013    4  0.0013    4  0.0013    4  0.0013
    5  0.8566    5  0.0124    6  0.0124    6  0.8566    7  0.1789    8  0.1789
    9  0.8566    9  0.0124   10  0.0124   10  0.8566   11  0.0124   11  0.8566
   12  0.8566   12  0.0124
   3    1  0.0013    1  0.0013    1  0.0013    1  0.0013    2  0.0013    2  0.0013
    2  0.0013    2  0.0013    4  0.0013    4  0.0013    4  0.0013    4  0.0013
    5  0.8566    5  0.0124    6  0.0124    6  0.8566    7  0.0124    7  0.8566
    8  0.8566    8  0.0124    9  0.1789   10  0.1789   11  0.8566   11  0.0124
   12  0.0124   12  0.8566
   4    1  0.0013    1  0.0013    1  0.0013    1  0.0013    2  0.0013    2  0.0013
    2  0.0013    2  0.0013    3  0.0013    3  0.0013    3  0.0013    3  0.0013
    5  0.8566    5  0.0124    6  0.0124    6  0.8566    7  0.8566    7  0.0124
    8  0.0124    8  0.8566    9  0.0124    9  0.8566   10  0.8566   10  0.0124
   11  0.1789   12  0.1789
   5    1  0.1789    2  0.8566    2  0.0124    3  0.8566    3  0.0124    4  0.8566
    4  0.0124    6  0.1391    7  0.0084    7  0.0084    8  0.1466    8  0.1466
    9  0.0084    9  0.0084   10  0.1466   10  0.1466   11  0.0084   11  0.0084
   12  0.1466   12  0.1466
   6    1  0.1789    2  0.0124    2  0.8566    3  0.0124    3  0.8566    4  0.0124
    4  0.8566    5  0.1391    7  0.1466    7  0.1466    8  0.0084    8  0.0084
    9  0.1466    9  0.1466   10  0.0084   10  0.0084   11  0.1466   11  0.1466
   12  0.0084   12  0.0084
   7    1  0.0124    1  0.8566    2  0.1789    3  0.0124    3  0.8566    4  0.8566
    4  0.0124    5  0.0084    5  0.0084    6  0.1466    6  0.1466    8  0.1391
    9  0.0084    9  0.0084   10  0.1466   10  0.1466   11  0.0084   11  0.0084
   12  0.1466   12  0.1466
   8    1  0.8566    1  0.0124    2  0.1789    3  0.8566    3  0.0124    4  0.0124
    4  0.8566    5  0.1466    5  0.1466    6  0.0084    6  0.0084    7  0.1391
    9  0.1466    9  0.1466   10  0.0084   10  0.0084   11  0.1466   11  0.1466
   12  0.0084   12  0.0084
   9    1  0.0124    1  0.8566    2  0.8566    2  0.0124    3  0.1789    4  0.0124
    4  0.8566    5  0.0084    5  0.0084    6  0.1466    6  0.1466    7  0.0084
    7  0.0084    8  0.1466    8  0.1466   10  0.1391   11  0.0084   11  0.0084
   12  0.1466   12  0.1466
  10    1  0.8566    1  0.0124    2  0.0124    2  0.8566    3  0.1789    4  0.8566
    4  0.0124    5  0.1466    5  0.1466    6  0.0084    6  0.0084    7  0.1466
    7  0.1466    8  0.0084    8  0.0084    9  0.1391   11  0.1466   11  0.1466
   12  0.0084   12  0.0084
  11    1  0.0124    1  0.8566    2  0.0124    2  0.8566    3  0.8566    3  0.0124
    4  0.1789    5  0.0084    5  0.0084    6  0.1466    6  0.1466    7  0.0084
    7  0.0084    8  0.1466    8  0.1466    9  0.0084    9  0.0084   10  0.1466
   10  0.1466   12  0.1391
  12    1  0.8566    1  0.0124    2  0.8566    2  0.0124    3  0.0124    3  0.8566
    4  0.1789    5  0.1466    5  0.1466    6  0.0084    6  0.0084    7  0.1466
    7  0.1466    8  0.0084    8  0.0084    9  0.1466    9  0.1466   10  0.0084
   10  0.0084   11  0.1391

  ReaxFF: Bond Order pi prime: 

   1    2  0.0000    2  0.0000    2  0.0000    2  0.0000    3  0.0000    3  0.0000
    3  0.0000    3  0.0000    4  0.0000    4  0.0000    4  0.0000    4  0.0000
    5  0.0000    6  0.0000    7  0.0000    7  0.0000    8  0.0000    8  0.0000
    9  0.0000    9  0.0000   10  0.0000   10  0.0000   11  0.0000   11  0.0000
   12  0.0000   12  0.0000
   2    1  0.0000    1  0.0000    1  0.0000    1  0.0000    3  0.0000    3  0.0000
    3  0.0000    3  0.0000    4  0.0000    4  0.0000    4  0.0000    4  0.0000
    5  0.0000    5  0.0000    6  0.0000    6  0.0000    7  0.0000    8  0.0000
    9  0.0000    9  0.0000   10  0.0000   10  0.0000   11  0.0000   11  0.0000
   12  0.0000   12  0.0000
   3    1  0.0000    1  0.0000    1  0.0000    1  0.0000    2  0.0000    2  0.0000
    2  0.0000    2  0.0000    4  0.0000    4  0.0000    4  0.0000    4  0.0000
    5  0.0000    5  0.0000    6  0.0000    6  0.0000    7  0.0000    7  0.0000
    8  0.0000    8  0.0000    9  0.0000   10  0.0000   11  0.0000   11  0.0000
   12  0.0000   12  0.0000
   4    1  0.0000    1  0.0000    1  0.0000    1  0.0000    2  0.0000    2  0.0000
    2  0.0000    2  0.0000    3  0.0000    3  0.0000    3  0.0000    3  0.0000
    5  0.0000    5  0.0000    6  0.0000    6  0.0000    7  0.0000    7  0.0000
    8  0.0000    8  0.0000    9  0.0000    9  0.0000   10  0.0000   10  0.0000
   11  0.0000   12  0.0000
   5    1  0.0000    2  0.0000    2  0.0000    3  0.0000    3  0.0000    4  0.0000
    4  0.0000    6  0.0000    7  0.0000    7  0.0000    8  0.0000    8  0.0000
    9  0.0000    9  0.0000   10  0.0000   10  0.0000   11  0.0000   11  0.0000
   12  0.0000   12  0.0000
   6    1  0.0000    2  0.0000    2  0.0000    3  0.0000    3  0.0000    4  0.0000
    4  0.0000    5  0.0000    7  0.0000    7  0.0000    8  0.0000    8  0.0000
    9  0.0000    9  0.0000   10  0.0000   10  0.0000   11  0.0000   11  0.0000
   12  0.0000   12  0.0000
   7    1  0.0000    1  0.0000    2  0.0000    3  0.0000    3  0.0000    4  0.0000
    4  0.0000    5  0.0000    5  0.0000    6  0.0000    6  0.0000    8  0.0000
    9  0.0000    9  0.0000   10  0.0000   10  0.0000   11  0.0000   11  0.0000
   12  0.0000   12  0.0000
   8    1  0.0000    1  0.0000    2  0.0000    3  0.0000    3  0.0000    4  0.0000
    4  0.0000    5  0.0000    5  0.0000    6  0.0000    6  0.0000    7  0.0000
    9  0.0000    9  0.0000   10  0.0000   10  0.0000   11  0.0000   11  0.0000
   12  0.0000   12  0.0000
   9    1  0.0000    1  0.0000    2  0.0000    2  0.0000    3  0.0000    4  0.0000
    4  0.0000    5  0.0000    5  0.0000    6  0.0000    6  0.0000    7  0.0000
    7  0.0000    8  0.0000    8  0.0000   10  0.0000   11  0.0000   11  0.0000
   12  0.0000   12  0.0000
  10    1  0.0000    1  0.0000    2  0.0000    2  0.0000    3  0.0000    4  0.0000
[...]
    5  0.8120    5  0.1002    6  0.1002    6  0.8120    7  0.1002    7  0.8120
    8  0.8120    8  0.1002    9  0.0090   10  0.0090   11  0.8120   11  0.1002
   12  0.1002   12  0.8120
   4    1  0.0002    1  0.0002    1  0.0002    1  0.0002    2  0.0002    2  0.0002
    2  0.0002    2  0.0002    3  0.0002    3  0.0002    3  0.0002    3  0.0002
    5  0.8120    5  0.1002    6  0.1002    6  0.8120    7  0.8120    7  0.1002
    8  0.1002    8  0.8120    9  0.1002    9  0.8120   10  0.8120   10  0.1002
   11  0.0090   12  0.0090
   5    1  0.0090    2  0.8120    2  0.1002    3  0.8120    3  0.1002    4  0.8120
    4  0.1002    6  0.8559    7  0.0066    7  0.0066    8  0.0314    8  0.0314
    9  0.0066    9  0.0066   10  0.0314   10  0.0314   11  0.0066   11  0.0066
   12  0.0314   12  0.0314
   6    1  0.0090    2  0.1002    2  0.8120    3  0.1002    3  0.8120    4  0.1002
    4  0.8120    5  0.8559    7  0.0314    7  0.0314    8  0.0066    8  0.0066
    9  0.0314    9  0.0314   10  0.0066   10  0.0066   11  0.0314   11  0.0314
   12  0.0066   12  0.0066
   7    1  0.1002    1  0.8120    2  0.0090    3  0.1002    3  0.8120    4  0.8120
    4  0.1002    5  0.0066    5  0.0066    6  0.0314    6  0.0314    8  0.8559
    9  0.0066    9  0.0066   10  0.0314   10  0.0314   11  0.0066   11  0.0066
   12  0.0314   12  0.0314
   8    1  0.8120    1  0.1002    2  0.0090    3  0.8120    3  0.1002    4  0.1002
    4  0.8120    5  0.0314    5  0.0314    6  0.0066    6  0.0066    7  0.8559
    9  0.0314    9  0.0314   10  0.0066   10  0.0066   11  0.0314   11  0.0314
   12  0.0066   12  0.0066
   9    1  0.1002    1  0.8120    2  0.8120    2  0.1002    3  0.0090    4  0.1002
    4  0.8120    5  0.0066    5  0.0066    6  0.0314    6  0.0314    7  0.0066
    7  0.0066    8  0.0314    8  0.0314   10  0.8559   11  0.0066   11  0.0066
   12  0.0314   12  0.0314
  10    1  0.8120    1  0.1002    2  0.1002    2  0.8120    3  0.0090    4  0.8120
    4  0.1002    5  0.0314    5  0.0314    6  0.0066    6  0.0066    7  0.0314
    7  0.0314    8  0.0066    8  0.0066    9  0.8559   11  0.0314   11  0.0314
   12  0.0066   12  0.0066
  11    1  0.1002    1  0.8120    2  0.1002    2  0.8120    3  0.8120    3  0.1002
    4  0.0090    5  0.0066    5  0.0066    6  0.0314    6  0.0314    7  0.0066
    7  0.0066    8  0.0314    8  0.0314    9  0.0066    9  0.0066   10  0.0314
   10  0.0314   12  0.8559
  12    1  0.8120    1  0.1002    2  0.8120    2  0.1002    3  0.1002    3  0.8120
    4  0.0090    5  0.0314    5  0.0314    6  0.0066    6  0.0066    7  0.0314
    7  0.0314    8  0.0066    8  0.0066    9  0.0314    9  0.0314   10  0.0066
   10  0.0066   11  0.8559

  ReaxFF: Bond Order pi prime: 

   1    2  0.0000    2  0.0000    2  0.0000    2  0.0000    3  0.0000    3  0.0000
    3  0.0000    3  0.0000    4  0.0000    4  0.0000    4  0.0000    4  0.0000
    5  0.0000    6  0.0000    7  0.0000    7  0.0000    8  0.0000    8  0.0000
    9  0.0000    9  0.0000   10  0.0000   10  0.0000   11  0.0000   11  0.0000
   12  0.0000   12  0.0000
   2    1  0.0000    1  0.0000    1  0.0000    1  0.0000    3  0.0000    3  0.0000
    3  0.0000    3  0.0000    4  0.0000    4  0.0000    4  0.0000    4  0.0000
    5  0.0000    5  0.0000    6  0.0000    6  0.0000    7  0.0000    8  0.0000
    9  0.0000    9  0.0000   10  0.0000   10  0.0000   11  0.0000   11  0.0000
   12  0.0000   12  0.0000
   3    1  0.0000    1  0.0000    1  0.0000    1  0.0000    2  0.0000    2  0.0000
    2  0.0000    2  0.0000    4  0.0000    4  0.0000    4  0.0000    4  0.0000
    5  0.0000    5  0.0000    6  0.0000    6  0.0000    7  0.0000    7  0.0000
    8  0.0000    8  0.0000    9  0.0000   10  0.0000   11  0.0000   11  0.0000
   12  0.0000   12  0.0000
   4    1  0.0000    1  0.0000    1  0.0000    1  0.0000    2  0.0000    2  0.0000
    2  0.0000    2  0.0000    3  0.0000    3  0.0000    3  0.0000    3  0.0000
    5  0.0000    5  0.0000    6  0.0000    6  0.0000    7  0.0000    7  0.0000
    8  0.0000    8  0.0000    9  0.0000    9  0.0000   10  0.0000   10  0.0000
   11  0.0000   12  0.0000
   5    1  0.0000    2  0.0000    2  0.0000    3  0.0000    3  0.0000    4  0.0000
    4  0.0000    6  0.5368    7  0.0000    7  0.0000    8  0.0000    8  0.0000
    9  0.0000    9  0.0000   10  0.0000   10  0.0000   11  0.0000   11  0.0000
   12  0.0000   12  0.0000
   6    1  0.0000    2  0.0000    2  0.0000    3  0.0000    3  0.0000    4  0.0000
    4  0.0000    5  0.5368    7  0.0000    7  0.0000    8  0.0000    8  0.0000
    9  0.0000    9  0.0000   10  0.0000   10  0.0000   11  0.0000   11  0.0000
   12  0.0000   12  0.0000
   7    1  0.0000    1  0.0000    2  0.0000    3  0.0000    3  0.0000    4  0.0000
    4  0.0000    5  0.0000    5  0.0000    6  0.0000    6  0.0000    8  0.5368
    9  0.0000    9  0.0000   10  0.0000   10  0.0000   11  0.0000   11  0.0000
   12  0.0000   12  0.0000
   8    1  0.0000    1  0.0000    2  0.0000    3  0.0000    3  0.0000    4  0.0000
    4  0.0000    5  0.0000    5  0.0000    6  0.0000    6  0.0000    7  0.5368
    9  0.0000    9  0.0000   10  0.0000   10  0.0000   11  0.0000   11  0.0000
   12  0.0000   12  0.0000
   9    1  0.0000    1  0.0000    2  0.0000    2  0.0000    3  0.0000    4  0.0000
    4  0.0000    5  0.0000    5  0.0000    6  0.0000    6  0.0000    7  0.0000
    7  0.0000    8  0.0000    8  0.0000   10  0.5368   11  0.0000   11  0.0000
   12  0.0000   12  0.0000
  10    1  0.0000    1  0.0000    2  0.0000    2  0.0000    3  0.0000    4  0.0000
    4  0.0000    5  0.0000    5  0.0000    6  0.0000    6  0.0000    7  0.0000
    7  0.0000    8  0.0000    8  0.0000    9  0.5368   11  0.0000   11  0.0000
   12  0.0000   12  0.0000
  11    1  0.0000    1  0.0000    2  0.0000    2  0.0000    3  0.0000    3  0.0000
    4  0.0000    5  0.0000    5  0.0000    6  0.0000    6  0.0000    7  0.0000
    7  0.0000    8  0.0000    8  0.0000    9  0.0000    9  0.0000   10  0.0000
   10  0.0000   12  0.5368
  12    1  0.0000    1  0.0000    2  0.0000    2  0.0000    3  0.0000    3  0.0000
    4  0.0000    5  0.0000    5  0.0000    6  0.0000    6  0.0000    7  0.0000
    7  0.0000    8  0.0000    8  0.0000    9  0.0000    9  0.0000   10  0.0000
   10  0.0000   11  0.5368

  ReaxFF: Bond Order pi-pi prime: 

   1    2  0.0000    2  0.0000    2  0.0000    2  0.0000    3  0.0000    3  0.0000
    3  0.0000    3  0.0000    4  0.0000    4  0.0000    4  0.0000    4  0.0000
    5  0.0000    6  0.0000    7  0.0000    7  0.0000    8  0.0000    8  0.0000
    9  0.0000    9  0.0000   10  0.0000   10  0.0000   11  0.0000   11  0.0000
   12  0.0000   12  0.0000
   2    1  0.0000    1  0.0000    1  0.0000    1  0.0000    3  0.0000    3  0.0000
    3  0.0000    3  0.0000    4  0.0000    4  0.0000    4  0.0000    4  0.0000
    5  0.0000    5  0.0000    6  0.0000    6  0.0000    7  0.0000    8  0.0000
    9  0.0000    9  0.0000   10  0.0000   10  0.0000   11  0.0000   11  0.0000
   12  0.0000   12  0.0000
   3    1  0.0000    1  0.0000    1  0.0000    1  0.0000    2  0.0000    2  0.0000
    2  0.0000    2  0.0000    4  0.0000    4  0.0000    4  0.0000    4  0.0000
    5  0.0000    5  0.0000    6  0.0000    6  0.0000    7  0.0000    7  0.0000
    8  0.0000    8  0.0000    9  0.0000   10  0.0000   11  0.0000   11  0.0000
   12  0.0000   12  0.0000
   4    1  0.0000    1  0.0000    1  0.0000    1  0.0000    2  0.0000    2  0.0000
    2  0.0000    2  0.0000    3  0.0000    3  0.0000    3  0.0000    3  0.0000
    5  0.0000    5  0.0000    6  0.0000    6  0.0000    7  0.0000    7  0.0000
    8  0.0000    8  0.0000    9  0.0000    9  0.0000   10  0.0000   10  0.0000
   11  0.0000   12  0.0000
   5    1  0.0000    2  0.0000    2  0.0000    3  0.0000    3  0.0000    4  0.0000
    4  0.0000    6  0.0000    7  0.0000    7  0.0000    8  0.0000    8  0.0000
    9  0.0000    9  0.0000   10  0.0000   10  0.0000   11  0.0000   11  0.0000
   12  0.0000   12  0.0000
   6    1  0.0000    2  0.0000    2  0.0000    3  0.0000    3  0.0000    4  0.0000
    4  0.0000    5  0.0000    7  0.0000    7  0.0000    8  0.0000    8  0.0000
    9  0.0000    9  0.0000   10  0.0000   10  0.0000   11  0.0000   11  0.0000
   12  0.0000   12  0.0000
   7    1  0.0000    1  0.0000    2  0.0000    3  0.0000    3  0.0000    4  0.0000
    4  0.0000    5  0.0000    5  0.0000    6  0.0000    6  0.0000    8  0.0000
    9  0.0000    9  0.0000   10  0.0000   10  0.0000   11  0.0000   11  0.0000
   12  0.0000   12  0.0000
   8    1  0.0000    1  0.0000    2  0.0000    3  0.0000    3  0.0000    4  0.0000
    4  0.0000    5  0.0000    5  0.0000    6  0.0000    6  0.0000    7  0.0000
    9  0.0000    9  0.0000   10  0.0000   10  0.0000   11  0.0000   11  0.0000
   12  0.0000   12  0.0000
   9    1  0.0000    1  0.0000    2  0.0000    2  0.0000    3  0.0000    4  0.0000
    4  0.0000    5  0.0000    5  0.0000    6  0.0000    6  0.0000    7  0.0000
    7  0.0000    8  0.0000    8  0.0000   10  0.0000   11  0.0000   11  0.0000
   12  0.0000   12  0.0000
  10    1  0.0000    1  0.0000    2  0.0000    2  0.0000    3  0.0000    4  0.0000
    4  0.0000    5  0.0000    5  0.0000    6  0.0000    6  0.0000    7  0.0000
    7  0.0000    8  0.0000    8  0.0000    9  0.0000   11  0.0000   11  0.0000
   12  0.0000   12  0.0000
  11    1  0.0000    1  0.0000    2  0.0000    2  0.0000    3  0.0000    3  0.0000
    4  0.0000    5  0.0000    5  0.0000    6  0.0000    6  0.0000    7  0.0000
    7  0.0000    8  0.0000    8  0.0000    9  0.0000    9  0.0000   10  0.0000
   10  0.0000   12  0.0000
  12    1  0.0000    1  0.0000    2  0.0000    2  0.0000    3  0.0000    3  0.0000
    4  0.0000    5  0.0000    5  0.0000    6  0.0000    6  0.0000    7  0.0000
    7  0.0000    8  0.0000    8  0.0000    9  0.0000    9  0.0000   10  0.0000
   10  0.0000   11  0.0000



  ReaxFF: Delta and Bond Order: 

   1  2.493859    2  0.0002    2  0.0002    2  0.0002    2  0.0002    3  0.0002    3  0.0002
    3  0.0002    3  0.0002    4  0.0002    4  0.0002    4  0.0002    4  0.0002
    5  0.0090    6  0.0090    7  0.1002    7  0.8120    8  0.8120    8  0.1002
    9  0.1002    9  0.8120   10  0.8120   10  0.1002   11  0.1002   11  0.8120
   12  0.8120   12  0.1002
   2  2.493859    1  0.0002    1  0.0002    1  0.0002    1  0.0002    3  0.0002    3  0.0002
    3  0.0002    3  0.0002    4  0.0002    4  0.0002    4  0.0002    4  0.0002
    5  0.8120    5  0.1002    6  0.1002    6  0.8120    7  0.0090    8  0.0090
    9  0.8120    9  0.1002   10  0.1002   10  0.8120   11  0.1002   11  0.8120
   12  0.8120   12  0.1002
   3  2.493859    1  0.0002    1  0.0002    1  0.0002    1  0.0002    2  0.0002    2  0.0002
    2  0.0002    2  0.0002    4  0.0002    4  0.0002    4  0.0002    4  0.0002
    5  0.8120    5  0.1002    6  0.1002    6  0.8120    7  0.1002    7  0.8120
    8  0.8120    8  0.1002    9  0.0090   10  0.0090   11  0.8120   11  0.1002
   12  0.1002   12  0.8120
   4  2.493859    1  0.0002    1  0.0002    1  0.0002    1  0.0002    2  0.0002    2  0.0002
    2  0.0002    2  0.0002    3  0.0002    3  0.0002    3  0.0002    3  0.0002
    5  0.8120    5  0.1002    6  0.1002    6  0.8120    7  0.8120    7  0.1002
    8  0.1002    8  0.8120    9  0.1002    9  0.8120   10  0.8120   10  0.1002
   11  0.0090   12  0.0090
   5  1.488209    1  0.0090    2  0.8120    2  0.1002    3  0.8120    3  0.1002    4  0.8120
    4  0.1002    6  0.6379    7  0.0030    7  0.0030    8  0.0144    8  0.0144
    9  0.0030    9  0.0030   10  0.0144   10  0.0144   11  0.0030   11  0.0030
   12  0.0144   12  0.0144
   6  1.488209    1  0.0090    2  0.1002    2  0.8120    3  0.1002    3  0.8120    4  0.1002
    4  0.8120    5  0.6379    7  0.0144    7  0.0144    8  0.0030    8  0.0030
    9  0.0144    9  0.0144   10  0.0030   10  0.0030   11  0.0144   11  0.0144
   12  0.0030   12  0.0030
   7  1.488209    1  0.1002    1  0.8120    2  0.0090    3  0.1002    3  0.8120    4  0.8120
    4  0.1002    5  0.0030    5  0.0030    6  0.0144    6  0.0144    8  0.6379
    9  0.0030    9  0.0030   10  0.0144   10  0.0144   11  0.0030   11  0.0030
   12  0.0144   12  0.0144
   8  1.488209    1  0.8120    1  0.1002    2  0.0090    3  0.8120    3  0.1002    4  0.1002
    4  0.8120    5  0.0144    5  0.0144    6  0.0030    6  0.0030    7  0.6379
    9  0.0144    9  0.0144   10  0.0030   10  0.0030   11  0.0144   11  0.0144
   12  0.0030   12  0.0030
   9  1.488209    1  0.1002    1  0.8120    2  0.8120    2  0.1002    3  0.0090    4  0.1002
    4  0.8120    5  0.0030    5  0.0030    6  0.0144    6  0.0144    7  0.0030
    7  0.0030    8  0.0144    8  0.0144   10  0.6379   11  0.0030   11  0.0030
   12  0.0144   12  0.0144
  10  1.488209    1  0.8120    1  0.1002    2  0.1002    2  0.8120    3  0.0090    4  0.8120
    4  0.1002    5  0.0144    5  0.0144    6  0.0030    6  0.0030    7  0.0144
    7  0.0144    8  0.0030    8  0.0030    9  0.6379   11  0.0144   11  0.0144
   12  0.0030   12  0.0030
  11  1.488209    1  0.1002    1  0.8120    2  0.1002    2  0.8120    3  0.8120    3  0.1002
    4  0.0090    5  0.0030    5  0.0030    6  0.0144    6  0.0144    7  0.0030
    7  0.0030    8  0.0144    8  0.0144    9  0.0030    9  0.0030   10  0.0144
   10  0.0144   12  0.6379
  12  1.488209    1  0.8120    1  0.1002    2  0.8120    2  0.1002    3  0.1002    3  0.8120
    4  0.0090    5  0.0144    5  0.0144    6  0.0030    6  0.0030    7  0.0144
    7  0.0144    8  0.0030    8  0.0030    9  0.0144    9  0.0144   10  0.0030
   10  0.0030   11  0.6379

  ReaxFF: Delta lone pair: 

   1  1.000000
   2  1.000000
   3  1.000000
   4  1.000000
   5  0.999999
   6  0.999999
   7  0.999999
   8  0.999999
   9  0.999999
  10  0.999999
  11  0.999999
  12  0.999999


  ReaxFF : Energy contributions: 

  E(bond)     =     -77.39551881 eV =    -1784.7716221 kcal
  E(bpen)     =       0.00000000 eV =        0.0000000 kcal
  E(lonepair) =       1.21399426 eV =       27.9951932 kcal
  E(over)     =      12.16296392 eV =      280.4828132 kcal
  E(under)    =       0.00000000 eV =        0.0000000 kcal
  E(val)      =      13.80015008 eV =      318.2369810 kcal
  E(pen)      =       0.00000000 eV =        0.0000000 kcal
  E(coa)      =       0.00000000 eV =        0.0000000 kcal
  E(tors)     =       0.19158951 eV =        4.4181306 kcal
  E(conj)     =       0.00000000 eV =        0.0000000 kcal
  E(hb)       =       0.00000000 eV =        0.0000000 kcal
  E(vdw)      =       5.95617879 eV =      137.3518653 kcal
  E(coulomb)  =      -2.95800482 eV =      -68.2127743 kcal
  E(self)     =      -0.35733251 eV =       -8.2402306 kcal
  **** Ftol satisfied in optimiser ****
  **** Gmax satisfied in optimiser ****
  **** Gtol satisfied in optimiser ****
  **** Xtol satisfied in optimiser ****


  **** Optimisation achieved ****


  Final energy =     -47.38597959 eV
  Final Gnorm  =       0.00000803

  Components of energy : 

--------------------------------------------------------------------------------
  Interatomic potentials     =           0.00000000 eV    
  ReaxFF force field         =         -47.38597959 eV    
  Monopole - monopole (real) =           0.00000000 eV    
  Monopole - monopole (recip)=           0.00000000 eV    
  Monopole - monopole (total)=           0.00000000 eV    
--------------------------------------------------------------------------------
  Total lattice energy       =         -47.38597959 eV    
--------------------------------------------------------------------------------
  Total lattice energy       =           -4572.0227 kJ/(mole unit cells)
--------------------------------------------------------------------------------

  Final asymmetric unit coordinates :

--------------------------------------------------------------------------------
   No.  Atomic        x           y           z         Radius
        Label       (Frac)      (Frac)      (Frac)       (Angs) 
--------------------------------------------------------------------------------
     1  Fe    c     0.000000    0.000000    0.000000    0.000000
     2  S     c     0.398529    0.398529    0.398529    0.000000
--------------------------------------------------------------------------------

  Final Cartesian lattice vectors (Angstroms) :

        5.491319    0.000000    0.000000
        0.000000    5.491319    0.000000
        0.000000    0.000000    5.491319


  Final cell parameters and derivatives :

--------------------------------------------------------------------------------
       a            5.491319 Angstrom     dE/de1(xx)    -0.000008 eV/strain
       b            5.491319 Angstrom     dE/de2(yy)    -0.000008 eV/strain
       c            5.491319 Angstrom     dE/de3(zz)    -0.000008 eV/strain
       alpha       90.000000 Degrees      dE/de4(yz)    -0.000000 eV/strain
       beta        90.000000 Degrees      dE/de5(xz)    -0.000000 eV/strain
       gamma       90.000000 Degrees      dE/de6(xy)    -0.000000 eV/strain
--------------------------------------------------------------------------------

  Primitive cell volume =           165.588427 Angs**3

  Density of cell =      4.813169 g/cm**3

  Non-primitive cell volume =           165.588427 Angs**3


  Final internal derivatives :

--------------------------------------------------------------------------------
   No.  Atomic          a             b             c           Radius
        Label          (eV)          (eV)          (eV)        (eV/Angs)
--------------------------------------------------------------------------------
      1 Fe    c       0.000000      0.000000      0.000000      0.000000
      2 S     c       0.000054      0.000000      0.000000      0.000000
--------------------------------------------------------------------------------
  Maximum abs         0.000054      0.000000      0.000000      0.000000
--------------------------------------------------------------------------------


  Time to end of optimisation =       0.2949 seconds



  Final charges from ReaxFF :

--------------------------------------------------------------------------------
    Atom no.            Atomic No.             Charge
--------------------------------------------------------------------------------
         1                  26                 0.3456357
         2                  26                 0.3456357
         3                  26                 0.3456357
         4                  26                 0.3456357
         5                  16                -0.1728178
         6                  16                -0.1728178
         7                  16                -0.1728178
         8                  16                -0.1728178
         9                  16                -0.1728178
        10                  16                -0.1728178
        11                  16                -0.1728178
        12                  16                -0.1728178
--------------------------------------------------------------------------------


  Peak dynamic memory used =       0.53 MB 


  Timing analysis for GULP :

--------------------------------------------------------------------------------
  Task / Subroutine                                          Time (Seconds)
--------------------------------------------------------------------------------
  Calculation of reaxFF energy and derivatives                    0.2710
  Electronegativity equalisation                                  0.0118
  Symmetry generation of equivalent positions                     0.0004
--------------------------------------------------------------------------------
  Total CPU time                                                  0.2954
--------------------------------------------------------------------------------


  CIF file written as main.cif                                                
  STR file written as main.str                      


  Job Finished at 11:16.08 24th September  2018                               

