********************************************************************************
*                       GENERAL UTILITY LATTICE PROGRAM                        *
*                                 Julian Gale                                  *
*                       Curtin Institute for Computation                       *
*                           Department of Chemistry                            *
*                    Curtin University, Western Australia                      *
********************************************************************************
* Version = 4.5.3 * Last modified =  19th April 2017                           *
********************************************************************************
*  optimise     - perform optimisation run                                     *
*  conp         - constant pressure calculation                                *
********************************************************************************

  Job Started  at 06:13.07 11th July       2019                               

  Number of CPUs =     1


  Total number of configurations input =   1

********************************************************************************
*  Input for Configuration =   1 : main-geometry                               *
********************************************************************************

  Formula = Fe4S8                                                       

  Number of irreducible atoms/shells =      12


  Total number atoms/shells =      12

  Dimensionality = 3               :  Bulk   



  Cartesian lattice vectors (Angstroms) :

        5.380000    0.000000    0.000000
        0.000000    5.380000    0.000000
        0.000000    0.000000    5.380000

  Cell parameters (Angstroms/Degrees):

  a =       5.3800    alpha =  90.0000
  b =       5.3800    beta  =  90.0000
  c =       5.3800    gamma =  90.0000

  Initial cell volume =         155.720872 Angs**3

  Temperature of configuration =  0.000     K 

  Pressure of configuration =         0.000 GPa 

  Fractional coordinates of asymmetric unit :

--------------------------------------------------------------------------------
   No.  Atomic       x           y          z         Charge      Occupancy
        Label      (Frac)      (Frac)     (Frac)        (e)         (Frac)  
--------------------------------------------------------------------------------
      1 Fe    c    0.000000    0.000000    0.000000     0.00000    1.000000    
      2 Fe    c    0.500000 *  0.000000 *  0.500000 *   0.00000    1.000000    
      3 Fe    c    0.000000 *  0.500000 *  0.500000 *   0.00000    1.000000    
      4 Fe    c    0.500000 *  0.500000 *  0.000000 *   0.00000    1.000000    
      5 S     c    0.338000 *  0.338000 *  0.338000 *   0.00000    1.000000    
      6 S     c    0.662000 *  0.662000 *  0.662000 *   0.00000    1.000000    
      7 S     c    0.162000 *  0.662000 *  0.838000 *   0.00000    1.000000    
      8 S     c    0.838000 *  0.338000 *  0.162000 *   0.00000    1.000000    
      9 S     c    0.662000 *  0.838000 *  0.162000 *   0.00000    1.000000    
     10 S     c    0.338000 *  0.162000 *  0.838000 *   0.00000    1.000000    
     11 S     c    0.838000 *  0.162000 *  0.662000 *   0.00000    1.000000    
     12 S     c    0.162000 *  0.838000 *  0.338000 *   0.00000    1.000000    
--------------------------------------------------------------------------------



********************************************************************************
*  General input information                                                   *
********************************************************************************

  Species output for all configurations : 

--------------------------------------------------------------------------------
  Species    Type    Atomic    Atomic    Charge       Radii (Angs)     Library
                     Number     Mass       (e)     Cova   Ionic  VDW   Symbol
--------------------------------------------------------------------------------
    Fe       Core       26      55.85   0.000000   1.340  0.000  2.000          
    S        Core       16      32.07   0.000000   1.020  0.000  1.700          
--------------------------------------------------------------------------------


  Lattice summation method               =    Ewald          (3-D)
                                         =    Parry          (2-D)
                                         =    Saunders et al (1-D)
  Accuracy factor for lattice sums       =   12.000


  Time limit = Infinity

  Maximum range for interatomic potentials =    100000.000000 Angstroms

  General interatomic potentials :

--------------------------------------------------------------------------------
Atom  Types   Potential      Parameter       Value         Units   Cutoffs(Ang)
  1     2                                                            Min /  Max 
--------------------------------------------------------------------------------
Fe   c Fe   c Lennard       Lennard-Jones A  1.0000000    eV*Ang^m  0.000 12.000
                            Lennard-Jones B  1.0000000    eV*Ang^n  
                            Exponent m        12          None
                            Exponent n         6          None
--------------------------------------------------------------------------------
S    c Fe   c Lennard       Lennard-Jones A  1.0000000    eV*Ang^m  0.000 12.000
                            Lennard-Jones B  1.0000000    eV*Ang^n  
                            Exponent m        12          None
                            Exponent n         6          None
--------------------------------------------------------------------------------
S    c S    c Lennard       Lennard-Jones A  1.0000000    eV*Ang^m  0.000 12.000
                            Lennard-Jones B  1.0000000    eV*Ang^n  
                            Exponent m        12          None
                            Exponent n         6          None
--------------------------------------------------------------------------------

********************************************************************************
*  Output for configuration   1 : main-geometry                                *
********************************************************************************


  Components of energy : 

--------------------------------------------------------------------------------
  Interatomic potentials     =          -0.32809466 eV    
  Monopole - monopole (real) =           0.00000000 eV    
  Monopole - monopole (recip)=           0.00000000 eV    
  Monopole - monopole (total)=           0.00000000 eV    
--------------------------------------------------------------------------------
  Total lattice energy       =          -0.32809466 eV    
--------------------------------------------------------------------------------
  Total lattice energy       =             -31.6561 kJ/(mole unit cells)
--------------------------------------------------------------------------------


  Number of variables =       39

  Maximum number of calculations  =           100
  Maximum Hessian update interval =            10
  Maximum step size               =   1.000000000
  Maximum parameter tolerance     =   0.000010000
  Maximum function  tolerance     =   0.000010000
  Maximum gradient  tolerance     =   0.001000000
  Maximum gradient  component     =   0.010000000

  Symmetry not applied to optimisation

  Cell parameters to be optimised using strains

  Newton-Raphson optimiser to be used

  BFGS hessian update to be used

  Start of bulk optimisation :

  Cycle:      0 Energy:        -0.328095  Gnorm:      0.028992  CPU:    0.006
  ** Hessian calculated **
  ** Trimming pvect back
  ** Cosine =  -0.999931
  Cycle:      1 Energy:        -8.810495  Gnorm:      0.583731  CPU:    0.022
  ** Hess reset due to cos < rst
  ** Cos =  -0.999931
  ** Hessian calculated **
  ** Trimming pvect back
  ** Cosine =  -0.948917
  Cycle:      2 Energy:       -13.119791  Gnorm:      0.410617  CPU:    0.053
  ** Hess reset due to cos < rst
  ** Cos =  -0.948917
  ** Hess reset due to cncadd and drop
  ** Hessian calculated **
  ** Cosine =   0.317663
  Cycle:      3 Energy:       -13.589078  Gnorm:      0.031284  CPU:    0.076
  ** Cosine =  -0.497736
  ** Hess reset due to cos < rst
  ** Cos =  -0.497736
  ** Hessian calculated **
  ** Cosine =   0.975299
  Cycle:      4 Energy:       -13.591125  Gnorm:      0.019128  CPU:    0.103
  ** Cosine =   0.959836
  Cycle:      5 Energy:       -13.613415  Gnorm:      0.055161  CPU:    0.127
  ** Trimming pvect back
  ** Cosine =  -0.822546
  ** Hess reset due to cos < rst
  ** Cos =  -0.822546
  ** Hessian calculated **
  ** Trimming pvect back
  ** Cosine =   0.962038
  Cycle:      6 Energy:       -13.619107  Gnorm:      0.054284  CPU:    0.151
  ** Trimming pvect back
  ** Cosine =   0.863704
  Cycle:      7 Energy:       -13.707890  Gnorm:      0.157142  CPU:    0.174
  ** Trimming pvect back
  ** Cosine =  -0.574692
  ** Hess reset due to cos < rst
  ** Cos =  -0.574692
  ** Hessian calculated **
  ** Trimming pvect back
  ** Cosine =   0.957682
  Cycle:      8 Energy:       -13.761241  Gnorm:      0.119887  CPU:    0.197
  ** Trimming pvect back
  ** Cosine =   0.917330
  Cycle:      9 Energy:       -14.376735  Gnorm:      0.338889  CPU:    0.227
  ** Trimming pvect back
  ** Cosine =  -0.769807
  ** Hess reset due to cos < rst
  ** Cos =  -0.769807
  ** Hessian calculated **
  ** Trimming pvect back
  ** Cosine =   0.914292
  Cycle:     10 Energy:       -14.505541  Gnorm:      0.247571  CPU:    0.253
  ** Trimming pvect back
  ** Cosine =   0.980442
  Cycle:     11 Energy:       -16.922114  Gnorm:      0.326026  CPU:    0.280
  ** Trimming pvect back
  ** Cosine =  -0.887407
  ** Hess reset due to cos < rst
  ** Cos =  -0.887407
  ** Hessian calculated **
  ** Trimming pvect back
  ** Cosine =   0.975460
  Cycle:     12 Energy:       -17.329527  Gnorm:      0.304233  CPU:    0.309
  ** Cosine =   0.782597
  Cycle:     13 Energy:       -17.464666  Gnorm:      0.053875  CPU:    0.329
  ** Cosine =   0.981412
  Cycle:     14 Energy:       -17.470899  Gnorm:      0.010824  CPU:    0.342
  ** Cosine =   0.857408
  **** Gmax satisfied in optimiser ****
  **** Gtol satisfied in optimiser ****
  Cycle:     15 Energy:       -17.471131  Gnorm:      0.000142  CPU:    0.354
  ** Cosine =   0.894913
  **** Ftol satisfied in optimiser ****
  **** Gmax satisfied in optimiser ****
  **** Gtol satisfied in optimiser ****
  **** Xtol satisfied in optimiser ****


  **** Optimisation achieved ****


  Final energy =     -17.47113113 eV
  Final Gnorm  =       0.00000273

  Components of energy : 

--------------------------------------------------------------------------------
  Interatomic potentials     =         -17.47113113 eV    
  Monopole - monopole (real) =           0.00000000 eV    
  Monopole - monopole (recip)=           0.00000000 eV    
  Monopole - monopole (total)=           0.00000000 eV    
--------------------------------------------------------------------------------
  Total lattice energy       =         -17.47113113 eV    
--------------------------------------------------------------------------------
  Total lattice energy       =           -1685.6971 kJ/(mole unit cells)
--------------------------------------------------------------------------------

  Final fractional coordinates of atoms :

--------------------------------------------------------------------------------
   No.  Atomic        x           y          z          Radius
        Label       (Frac)      (Frac)     (Frac)       (Angs) 
--------------------------------------------------------------------------------
     1  Fe    c     0.000000    0.000000    0.000000    0.000000
     2  Fe    c     0.500000    1.000000    0.500000    0.000000
     3  Fe    c     1.000000    0.500000    0.500000    0.000000
     4  Fe    c     0.500000    0.500000    0.000000    0.000000
     5  S     c     0.250000    0.250000    0.250000    0.000000
     6  S     c     0.750000    0.750000    0.750000    0.000000
     7  S     c     0.250000    0.750000    0.750000    0.000000
     8  S     c     0.750000    0.250000    0.250000    0.000000
     9  S     c     0.750000    0.750000    0.250000    0.000000
    10  S     c     0.250000    0.250000    0.750000    0.000000
    11  S     c     0.750000    0.250000    0.750000    0.000000
    12  S     c     0.250000    0.750000    0.250000    0.000000
--------------------------------------------------------------------------------

  Final Cartesian lattice vectors (Angstroms) :

        2.455770   -0.000000    0.000000
       -0.000000    2.455770   -0.000000
        0.000000   -0.000000    2.455770


  Final cell parameters and derivatives :

--------------------------------------------------------------------------------
       a            2.455770 Angstrom     dE/de1(xx)     0.000052 eV/strain
       b            2.455770 Angstrom     dE/de2(yy)     0.000052 eV/strain
       c            2.455770 Angstrom     dE/de3(zz)     0.000052 eV/strain
       alpha       90.000000 Degrees      dE/de4(yz)    -0.000000 eV/strain
       beta        90.000000 Degrees      dE/de5(xz)     0.000000 eV/strain
       gamma       90.000000 Degrees      dE/de6(xy)    -0.000000 eV/strain
--------------------------------------------------------------------------------

  Primitive cell volume =            14.810278 Angs**3

  Density of cell =     53.814319 g/cm**3

  Non-primitive cell volume =            14.810278 Angs**3


  Final internal derivatives :

--------------------------------------------------------------------------------
   No.  Atomic          a             b             c           Radius
        Label          (eV)          (eV)          (eV)        (eV/Angs)
--------------------------------------------------------------------------------
      1 Fe    c       0.000000      0.000000      0.000000      0.000000
      2 Fe    c      -0.000000     -0.000000      0.000000      0.000000
      3 Fe    c      -0.000000      0.000000     -0.000000      0.000000
      4 Fe    c      -0.000000      0.000000      0.000000      0.000000
      5 S     c      -0.000012     -0.000012     -0.000012      0.000000
      6 S     c       0.000012      0.000012      0.000012      0.000000
      7 S     c       0.000012      0.000012     -0.000012      0.000000
      8 S     c      -0.000012     -0.000012      0.000012      0.000000
      9 S     c       0.000012     -0.000012      0.000012      0.000000
     10 S     c      -0.000012      0.000012     -0.000012      0.000000
     11 S     c      -0.000012      0.000012      0.000012      0.000000
     12 S     c       0.000012     -0.000012     -0.000012      0.000000
--------------------------------------------------------------------------------
  Maximum abs         0.000012      0.000012      0.000012      0.000000
--------------------------------------------------------------------------------


  Time to end of optimisation =       0.3676 seconds


  Peak dynamic memory used =       0.54 MB 


  Timing analysis for GULP :

--------------------------------------------------------------------------------
  Task / Subroutine                                          Time (Seconds)
--------------------------------------------------------------------------------
  Calculation of real space energy and derivatives                0.3610
  Calculation of matrix inversion                                 0.0004
  Global summation overhead                                       0.0002
--------------------------------------------------------------------------------
  Total CPU time                                                  0.3677
--------------------------------------------------------------------------------


  CIF file written as output.cif                                              


  Job Finished at 06:13.07 11th July       2019                               

