********************************************************************************
*                       GENERAL UTILITY LATTICE PROGRAM                        *
*                                 Julian Gale                                  *
*                      Nanochemistry Research Institute                        *
*                           Department of Chemistry                            *
*                    Curtin University, Western Australia                      *
********************************************************************************
* Version = 4.1.0 * Last modified =   7th July 2013                            *
********************************************************************************
*  optimise     - perform optimisation run                                     *
*  conv         - constant volume calculation                                  *
********************************************************************************

  Job Started  at 09:27.30 29th July       2013                               

  Number of CPUs =     1

  Host name      = M-A0002884.local                        


  Total number of configurations input =   1

********************************************************************************
*  Input for Configuration =   1                                               *
********************************************************************************

  Formula = Mg6O6                                                       

  Number of irreducible atoms/shells =      18


  Total number atoms/shells =      18

  Dimensionality = 2               :  Surface



  Surface Cartesian vectors (Angstroms) :

        4.235384    0.000000    0.000000
        0.000000    4.235384    0.000000

  Surface cell parameters (Angstroms/Degrees):

  a =       4.2354    alpha =  90.0000
  b =       4.2354

  Initial surface area   =     17.938478 Angs**2

  Initial surface dipole =     -0.000000 e.Angs

  Temperature of configuration =  0.000     K 

  Mixed fractional/Cartesian coordinates of surface :

--------------------------------------------------------------------------------
   No.  Atomic       x           y          z         Charge      Occupancy
        Label      (Frac)      (Frac)     (Angs)        (e)         (Frac)  
--------------------------------------------------------------------------------
  Region 1 : 
--------------------------------------------------------------------------------
      1 Mg    c    0.500000 *  0.500000 *   -4.2354 *   2.00000    1.000000    
      2 Mg    c    0.000000 *  0.000000 *   -4.2354 *   2.00000    1.000000    
      3 O     c    0.500000 *  0.000000 *   -4.2354 *   0.93450    1.000000    
      4 O     c    0.000000 *  0.500000 *   -4.2354 *   0.93450    1.000000    
     13 O     s    0.500000 *  0.000000 *   -4.2354 *  -2.93450    1.000000    
     14 O     s    0.000000 *  0.500000 *   -4.2354 *  -2.93450    1.000000    
--------------------------------------------------------------------------------
  Region 2 :  Rigid translation fixed in xyz
--------------------------------------------------------------------------------
      5 Mg    c    0.500000    0.000000     -6.3531     2.00000    1.000000    
      6 Mg    c    0.000000    0.500000     -6.3531     2.00000    1.000000    
      7 O     c    0.500000    0.500000     -6.3531     0.93450    1.000000    
      8 O     c    0.000000    0.000000     -6.3531     0.93450    1.000000    
     15 O     s    0.500000    0.500000     -6.3531    -2.93450    1.000000    
     16 O     s    0.000000    0.000000     -6.3531    -2.93450    1.000000    
--------------------------------------------------------------------------------
  Region 3 :  Rigid translation fixed in xy 
--------------------------------------------------------------------------------
      9 Mg    c    0.502361    0.004722     -2.1177 *   2.00000    1.000000    
     10 Mg    c    0.002361    0.504722     -2.1177     2.00000    1.000000    
     11 O     c    0.502361    0.504722     -2.1177     0.93450    1.000000    
     12 O     c    0.002361    0.004722     -2.1177     0.93450    1.000000    
     17 O     s    0.502361    0.504722     -2.1177    -2.93450    1.000000    
     18 O     s    0.002361    0.004722     -2.1177    -2.93450    1.000000    
--------------------------------------------------------------------------------


  Constraints : 

--------------------------------------------------------------------------------
  Constraint no.      Unconstrained     Constrained    Coefficient    Offset
                         Variable         Variable
--------------------------------------------------------------------------------
           1                 9 z            10 z         1.00000      0.0000
           2                 9 z            11 z         1.00000      0.0000
           3                 9 z            12 z         1.00000      0.0000
           4                 9 z            17 z         1.00000      0.0000
           5                 9 z            18 z         1.00000      0.0000
--------------------------------------------------------------------------------


********************************************************************************
*  General input information                                                   *
********************************************************************************

  Species output for all configurations : 

--------------------------------------------------------------------------------
  Species    Type    Atomic    Atomic    Charge       Radii (Angs)     Library
                     Number     Mass       (e)     Cova   Ionic  VDW   Symbol
--------------------------------------------------------------------------------
    Mg       Core       12      24.31   2.000000   1.100  0.000  1.640          
    O        Core        8      16.00   0.934500   0.730  0.000  1.360          
    O        Shell       8       0.00  -2.934500   0.730  0.000  1.360          
--------------------------------------------------------------------------------


  Lattice summation method               =    Ewald          (3-D)
                                         =    Parry          (2-D)
                                         =    Saunders et al (1-D)
  Accuracy factor for lattice sums       =   12.000


  Time limit = Infinity

  Maximum range for interatomic potentials =    100000.000000 Angstroms

  General interatomic potentials :

--------------------------------------------------------------------------------
Atom  Types   Potential         A         B         C         D     Cutoffs(Ang)
  1     2                                                            Min    Max 
--------------------------------------------------------------------------------
Mg   c O    s Buckingham    0.135E+04 0.298      0.00      0.00     0.000  8.000
O    s O    s Buckingham    0.228E+05 0.149      20.4      0.00     0.000  8.000
O    c O    s Spring (c-s)   51.7      0.00      0.00      0.00     0.000  0.800
--------------------------------------------------------------------------------

********************************************************************************
*  Output for configuration   1                                                *
********************************************************************************


  Components of energy : 

--------------------------------------------------------------------------------
  Interatomic potentials     =          34.97709202 eV
  Monopole - monopole (real) =        -115.03130169 eV
  Monopole - monopole (recip)=        -163.05774366 eV
  Monopole - monopole (total)=        -278.08904535 eV
--------------------------------------------------------------------------------
  Total lattice energy       =        -243.11195333 eV
--------------------------------------------------------------------------------
  Total lattice energy       =          -23456.5872 kJ/(mole unit cells)
--------------------------------------------------------------------------------


  Number of variables =       19

  Maximum number of calculations  =          1000
  Maximum Hessian update interval =            10
  Maximum step size               =   1.000000000
  Maximum parameter tolerance     =   0.000010000
  Maximum function  tolerance     =   0.000010000
  Maximum gradient  tolerance     =   0.001000000
  Maximum gradient  component     =   0.010000000

  Symmetry not applied to optimisation

  Newton-Raphson optimiser to be used

  BFGS hessian update to be used

  Dumpfile to be written after every cycle

  Start of surface optimisation :

  Cycle:      0 Energy:      -243.111953  Gnorm:      0.040576  CPU:    0.007
  ** Hessian calculated **
  Cycle:      1 Energy:      -243.119218  Gnorm:      0.000625  CPU:    0.013


  **** Optimisation achieved ****


  Final energy =    -243.11921928 eV
  Final Gnorm  =       0.00001845

  Components of energy : 

--------------------------------------------------------------------------------
  Interatomic potentials     =          35.51766004 eV
  Monopole - monopole (real) =        -115.57703545 eV
  Monopole - monopole (recip)=        -163.05984388 eV
  Monopole - monopole (total)=        -278.63687932 eV
--------------------------------------------------------------------------------
  Total lattice energy       =        -243.11921928 eV
--------------------------------------------------------------------------------
  Total lattice energy       =          -23457.2882 kJ/(mole unit cells)
--------------------------------------------------------------------------------

  Final fractional/Cartesian coordinates of atoms :

--------------------------------------------------------------------------------
   No.  Atomic        x           y          z          Radius
        Label       (Frac)      (Frac)     (Angs)       (Angs) 
--------------------------------------------------------------------------------
     1  Mg    c     0.501181    0.502362   -4.253086    0.000000
     2  Mg    c     0.001181    0.002362   -4.253086    0.000000
     3  O     c     0.501181    0.002362   -4.253086    0.000000
     4  O     c     0.001181    0.502362   -4.253086    0.000000
     5  Mg    c     0.500000    0.000000   -6.353080    0.000000
     6  Mg    c     0.000000    0.500000   -6.353080    0.000000
     7  O     c     0.500000    0.500000   -6.353080    0.000000
     8  O     c     0.000000    0.000000   -6.353080    0.000000
     9  Mg    c     0.502361    0.004722   -2.153091    0.000000
    10  Mg    c     0.002361    0.504722   -2.153091    0.000000
    11  O     c     0.502361    0.504722   -2.153091    0.000000
    12  O     c     0.002361    0.004722   -2.153091    0.000000
    13  O     s     0.501181    0.002362   -4.253086    0.000000
    14  O     s     0.001181    0.502362   -4.253086    0.000000
    15  O     s     0.500000    0.500000   -6.353080    0.000000
    16  O     s     0.000000    0.000000   -6.353080    0.000000
    17  O     s     0.502361    0.504722   -2.153091    0.000000
    18  O     s     0.002361    0.004722   -2.153091    0.000000
--------------------------------------------------------------------------------

  Final internal/Cartesian derivatives :

--------------------------------------------------------------------------------
   No.  Atomic          a             b             z           Radius
        Label          (eV)          (eV)       (eV/Angs)      (eV/Angs)
--------------------------------------------------------------------------------
      1 Mg    c       0.000050      0.000098     -0.000004      0.000000
      2 Mg    c       0.000049      0.000098     -0.000004      0.000000
      3 O     c      -0.000027     -0.000074     -0.000002      0.000000
      4 O     c      -0.000041     -0.000061     -0.000002      0.000000
      5 Mg    c       0.000000      0.000000      0.000000      0.000000
      6 Mg    c       0.000000      0.000000      0.000000      0.000000
      7 O     c       0.000000      0.000000      0.000000      0.000000
      8 O     c       0.000000      0.000000      0.000000      0.000000
      9 Mg    c       0.000000      0.000000      0.000194      0.000000
     10 Mg    c       0.000000      0.000000      0.000000      0.000000
     11 O     c       0.000000      0.000000      0.000000      0.000000
     12 O     c       0.000000      0.000000      0.000000      0.000000
     13 O     s       0.000064      0.000147     -0.000001      0.000000
     14 O     s       0.000078      0.000134     -0.000001      0.000000
     15 O     s       0.000000      0.000000      0.000000      0.000000
     16 O     s       0.000000      0.000000      0.000000      0.000000
     17 O     s       0.000000      0.000000      0.000000      0.000000
     18 O     s       0.000000      0.000000      0.000000      0.000000
--------------------------------------------------------------------------------
  Maximum abs         0.000078      0.000147      0.000194      0.000000
--------------------------------------------------------------------------------


  Time to end of optimisation =       0.0187 seconds


  Peak dynamic memory used =       0.56 MB 


  Timing analysis for GULP :

--------------------------------------------------------------------------------
  Task / Subroutine                                          Time (Seconds)
--------------------------------------------------------------------------------
  Calculation of reciprocal space energy and derivatives          0.0051
  Calculation of real space energy and derivatives                0.0082
--------------------------------------------------------------------------------
  Total CPU time                                                  0.0187
--------------------------------------------------------------------------------


  Dump file written as example27.grs                                           


  Job Finished at 09:27.30 29th July       2013                               
