********************************************************************************
*                       GENERAL UTILITY LATTICE PROGRAM                        *
*                                 Julian Gale                                  *
*                       Curtin Institute for Computation                       *
*                           Department of Chemistry                            *
*                    Curtin University, Western Australia                      *
********************************************************************************
* Version = 4.5.3 * Last modified =  19th April 2017                           *
********************************************************************************

  ReaxFF: Bond order cutoffs: 

  Species number =    1   4.04098
  Species number =    2   4.04098


*  optimise     - perform optimisation run                                     *
*  conp         - constant pressure calculation                                *
********************************************************************************

  Job Started  at 06:19.26 11th July       2019                               

  Number of CPUs =     1


  Total number of configurations input =   1

********************************************************************************
*  Input for Configuration =   1 : main-geometry                               *
********************************************************************************

  Formula = Fe4S8                                                       

  Number of irreducible atoms/shells =      12


  Total number atoms/shells =      12

  Dimensionality = 3               :  Bulk   



  Cartesian lattice vectors (Angstroms) :

        5.380000    0.000000    0.000000
        0.000000    5.380000    0.000000
        0.000000    0.000000    5.380000

  Cell parameters (Angstroms/Degrees):

  a =       5.3800    alpha =  90.0000
  b =       5.3800    beta  =  90.0000
  c =       5.3800    gamma =  90.0000

  Initial cell volume =         155.720872 Angs**3

  Temperature of configuration =  0.000     K 

  Pressure of configuration =         0.000 GPa 

  Fractional coordinates of asymmetric unit :

--------------------------------------------------------------------------------
   No.  Atomic       x           y          z         Charge      Occupancy
        Label      (Frac)      (Frac)     (Frac)        (e)         (Frac)  
--------------------------------------------------------------------------------
      1 Fe    c    0.000000    0.000000    0.000000     0.00000    1.000000    
      2 Fe    c    0.500000 *  0.000000 *  0.500000 *   0.00000    1.000000    
      3 Fe    c    0.000000 *  0.500000 *  0.500000 *   0.00000    1.000000    
      4 Fe    c    0.500000 *  0.500000 *  0.000000 *   0.00000    1.000000    
      5 S     c    0.338000 *  0.338000 *  0.338000 *   0.00000    1.000000    
      6 S     c    0.662000 *  0.662000 *  0.662000 *   0.00000    1.000000    
      7 S     c    0.162000 *  0.662000 *  0.838000 *   0.00000    1.000000    
      8 S     c    0.838000 *  0.338000 *  0.162000 *   0.00000    1.000000    
      9 S     c    0.662000 *  0.838000 *  0.162000 *   0.00000    1.000000    
     10 S     c    0.338000 *  0.162000 *  0.838000 *   0.00000    1.000000    
     11 S     c    0.838000 *  0.162000 *  0.662000 *   0.00000    1.000000    
     12 S     c    0.162000 *  0.838000 *  0.338000 *   0.00000    1.000000    
--------------------------------------------------------------------------------



********************************************************************************
*  General input information                                                   *
********************************************************************************

  Species output for all configurations : 

--------------------------------------------------------------------------------
  Species    Type    Atomic    Atomic    Charge       Radii (Angs)     Library
                     Number     Mass       (e)     Cova   Ionic  VDW   Symbol
--------------------------------------------------------------------------------
    Fe       Core       26      55.85   0.000000   1.340  0.000  2.000          
    S        Core       16      32.07   0.000000   1.020  0.000  1.700          
--------------------------------------------------------------------------------


  Lattice summation method               =    Ewald          (3-D)
                                         =    Parry          (2-D)
                                         =    Saunders et al (1-D)
  Accuracy factor for lattice sums       =   12.000


  Time limit = Infinity

  ReaxFF: Bond order cutoffs: 

  Species number =    1   4.04098
  Species number =    2   4.04098



  Maximum range for interatomic potentials =    100000.000000 Angstroms

  ReaxFF forcefield to be used

  ReaxFF Coulomb cutoff =  10.0000 Ang
  ReaxFF VDW     cutoff =  10.0000 Ang
  ReaxFF H-bond  cutoff =   7.5000 Ang

  ReaxFF pairwise bond order       threshold = 0.00100000000000
  ReaxFF angle/torsion bond order  threshold = 0.00100000000000
  ReaxFF bond order double product threshold = 0.00100000000000
  ReaxFF bond order triple product threshold = 0.00001000000000
  ReaxFF hydrogen-bond bond order  threshold = 0.01000000000000


********************************************************************************
*  Output for configuration   1 : main-geometry                                *
********************************************************************************


  Increasing maxneigh to     26

  ReaxFF: Delta and Bond Order prime: 

   1  2.764770    2  0.0024    2  0.0024    2  0.0024    2  0.0024    3  0.0024    3  0.0024
    3  0.0024    3  0.0024    4  0.0024    4  0.0024    4  0.0024    4  0.0024
    5  0.2404    6  0.2404    7  0.0108    7  0.8651    8  0.8651    8  0.0108
    9  0.0108    9  0.8651   10  0.8651   10  0.0108   11  0.0108   11  0.8651
   12  0.8651   12  0.0108
   2  2.764770    1  0.0024    1  0.0024    1  0.0024    1  0.0024    3  0.0024    3  0.0024
    3  0.0024    3  0.0024    4  0.0024    4  0.0024    4  0.0024    4  0.0024
    5  0.8651    5  0.0108    6  0.0108    6  0.8651    7  0.2404    8  0.2404
    9  0.0108    9  0.8651   10  0.8651   10  0.0108   11  0.8651   11  0.0108
   12  0.0108   12  0.8651
   3  2.764770    1  0.0024    1  0.0024    1  0.0024    1  0.0024    2  0.0024    2  0.0024
    2  0.0024    2  0.0024    4  0.0024    4  0.0024    4  0.0024    4  0.0024
    5  0.8651    5  0.0108    6  0.0108    6  0.8651    7  0.8651    7  0.0108
    8  0.0108    8  0.8651    9  0.2404   10  0.2404   11  0.0108   11  0.8651
   12  0.8651   12  0.0108
   4  2.764770    1  0.0024    1  0.0024    1  0.0024    1  0.0024    2  0.0024    2  0.0024
    2  0.0024    2  0.0024    3  0.0024    3  0.0024    3  0.0024    3  0.0024
    5  0.8651    5  0.0108    6  0.0108    6  0.8651    7  0.0108    7  0.8651
    8  0.8651    8  0.0108    9  0.8651    9  0.0108   10  0.0108   10  0.8651
   11  0.2404   12  0.2404
   5  2.093572    1  0.2404    2  0.8651    2  0.0108    3  0.8651    3  0.0108    4  0.8651
    4  0.0108    6  0.0873    7  0.0097    7  0.0097    8  0.1800    8  0.1800
    9  0.0097    9  0.0097   10  0.1800   10  0.1800   11  0.0097   11  0.0097
   12  0.1800   12  0.1800
   6  2.093572    1  0.2404    2  0.0108    2  0.8651    3  0.0108    3  0.8651    4  0.0108
    4  0.8651    5  0.0873    7  0.1800    7  0.1800    8  0.0097    8  0.0097
    9  0.1800    9  0.1800   10  0.0097   10  0.0097   11  0.1800   11  0.1800
   12  0.0097   12  0.0097
   7  2.093572    1  0.0108    1  0.8651    2  0.2404    3  0.8651    3  0.0108    4  0.0108
    4  0.8651    5  0.0097    5  0.0097    6  0.1800    6  0.1800    8  0.0873
    9  0.0097    9  0.0097   10  0.1800   10  0.1800   11  0.0097   11  0.0097
   12  0.1800   12  0.1800
   8  2.093572    1  0.8651    1  0.0108    2  0.2404    3  0.0108    3  0.8651    4  0.8651
    4  0.0108    5  0.1800    5  0.1800    6  0.0097    6  0.0097    7  0.0873
    9  0.1800    9  0.1800   10  0.0097   10  0.0097   11  0.1800   11  0.1800
   12  0.0097   12  0.0097
   9  2.093572    1  0.0108    1  0.8651    2  0.0108    2  0.8651    3  0.2404    4  0.8651
    4  0.0108    5  0.0097    5  0.0097    6  0.1800    6  0.1800    7  0.0097
    7  0.0097    8  0.1800    8  0.1800   10  0.0873   11  0.0097   11  0.0097
   12  0.1800   12  0.1800
  10  2.093572    1  0.8651    1  0.0108    2  0.8651    2  0.0108    3  0.2404    4  0.0108
    4  0.8651    5  0.1800    5  0.1800    6  0.0097    6  0.0097    7  0.1800
    7  0.1800    8  0.0097    8  0.0097    9  0.0873   11  0.1800   11  0.1800
   12  0.0097   12  0.0097
  11  2.093572    1  0.0108    1  0.8651    2  0.8651    2  0.0108    3  0.0108    3  0.8651
    4  0.2404    5  0.0097    5  0.0097    6  0.1800    6  0.1800    7  0.0097
    7  0.0097    8  0.1800    8  0.1800    9  0.0097    9  0.0097   10  0.1800
   10  0.1800   12  0.0873
  12  2.093572    1  0.8651    1  0.0108    2  0.0108    2  0.8651    3  0.8651    3  0.0108
    4  0.2404    5  0.1800    5  0.1800    6  0.0097    6  0.0097    7  0.1800
    7  0.1800    8  0.0097    8  0.0097    9  0.1800    9  0.1800   10  0.0097
   10  0.0097   11  0.0873

  ReaxFF: Bond Order sigma prime: 

   1    2  0.0024    2  0.0024    2  0.0024    2  0.0024    3  0.0024    3  0.0024
    3  0.0024    3  0.0024    4  0.0024    4  0.0024    4  0.0024    4  0.0024
    5  0.2404    6  0.2404    7  0.0108    7  0.8651    8  0.8651    8  0.0108
    9  0.0108    9  0.8651   10  0.8651   10  0.0108   11  0.0108   11  0.8651
   12  0.8651   12  0.0108
   2    1  0.0024    1  0.0024    1  0.0024    1  0.0024    3  0.0024    3  0.0024
    3  0.0024    3  0.0024    4  0.0024    4  0.0024    4  0.0024    4  0.0024
    5  0.8651    5  0.0108    6  0.0108    6  0.8651    7  0.2404    8  0.2404
    9  0.0108    9  0.8651   10  0.8651   10  0.0108   11  0.8651   11  0.0108
   12  0.0108   12  0.8651
   3    1  0.0024    1  0.0024    1  0.0024    1  0.0024    2  0.0024    2  0.0024
    2  0.0024    2  0.0024    4  0.0024    4  0.0024    4  0.0024    4  0.0024
    5  0.8651    5  0.0108    6  0.0108    6  0.8651    7  0.8651    7  0.0108
    8  0.0108    8  0.8651    9  0.2404   10  0.2404   11  0.0108   11  0.8651
   12  0.8651   12  0.0108
   4    1  0.0024    1  0.0024    1  0.0024    1  0.0024    2  0.0024    2  0.0024
    2  0.0024    2  0.0024    3  0.0024    3  0.0024    3  0.0024    3  0.0024
    5  0.8651    5  0.0108    6  0.0108    6  0.8651    7  0.0108    7  0.8651
    8  0.8651    8  0.0108    9  0.8651    9  0.0108   10  0.0108   10  0.8651
   11  0.2404   12  0.2404
   5    1  0.2404    2  0.8651    2  0.0108    3  0.8651    3  0.0108    4  0.8651
    4  0.0108    6  0.0873    7  0.0097    7  0.0097    8  0.1800    8  0.1800
    9  0.0097    9  0.0097   10  0.1800   10  0.1800   11  0.0097   11  0.0097
   12  0.1800   12  0.1800
   6    1  0.2404    2  0.0108    2  0.8651    3  0.0108    3  0.8651    4  0.0108
    4  0.8651    5  0.0873    7  0.1800    7  0.1800    8  0.0097    8  0.0097
    9  0.1800    9  0.1800   10  0.0097   10  0.0097   11  0.1800   11  0.1800
   12  0.0097   12  0.0097
   7    1  0.0108    1  0.8651    2  0.2404    3  0.8651    3  0.0108    4  0.0108
    4  0.8651    5  0.0097    5  0.0097    6  0.1800    6  0.1800    8  0.0873
    9  0.0097    9  0.0097   10  0.1800   10  0.1800   11  0.0097   11  0.0097
   12  0.1800   12  0.1800
   8    1  0.8651    1  0.0108    2  0.2404    3  0.0108    3  0.8651    4  0.8651
    4  0.0108    5  0.1800    5  0.1800    6  0.0097    6  0.0097    7  0.0873
    9  0.1800    9  0.1800   10  0.0097   10  0.0097   11  0.1800   11  0.1800
   12  0.0097   12  0.0097
   9    1  0.0108    1  0.8651    2  0.0108    2  0.8651    3  0.2404    4  0.8651
    4  0.0108    5  0.0097    5  0.0097    6  0.1800    6  0.1800    7  0.0097
    7  0.0097    8  0.1800    8  0.1800   10  0.0873   11  0.0097   11  0.0097
   12  0.1800   12  0.1800
  10    1  0.8651    1  0.0108    2  0.8651    2  0.0108    3  0.2404    4  0.0108
    4  0.8651    5  0.1800    5  0.1800    6  0.0097    6  0.0097    7  0.1800
    7  0.1800    8  0.0097    8  0.0097    9  0.0873   11  0.1800   11  0.1800
   12  0.0097   12  0.0097
  11    1  0.0108    1  0.8651    2  0.8651    2  0.0108    3  0.0108    3  0.8651
    4  0.2404    5  0.0097    5  0.0097    6  0.1800    6  0.1800    7  0.0097
    7  0.0097    8  0.1800    8  0.1800    9  0.0097    9  0.0097   10  0.1800
   10  0.1800   12  0.0873
  12    1  0.8651    1  0.0108    2  0.0108    2  0.8651    3  0.8651    3  0.0108
    4  0.2404    5  0.1800    5  0.1800    6  0.0097    6  0.0097    7  0.1800
    7  0.1800    8  0.0097    8  0.0097    9  0.1800    9  0.1800   10  0.0097
   10  0.0097   11  0.0873

  ReaxFF: Bond Order pi prime: 

   1    2  0.0000    2  0.0000    2  0.0000    2  0.0000    3  0.0000    3  0.0000
    3  0.0000    3  0.0000    4  0.0000    4  0.0000    4  0.0000    4  0.0000
    5  0.0000    6  0.0000    7  0.0000    7  0.0000    8  0.0000    8  0.0000
    9  0.0000    9  0.0000   10  0.0000   10  0.0000   11  0.0000   11  0.0000
   12  0.0000   12  0.0000
   2    1  0.0000    1  0.0000    1  0.0000    1  0.0000    3  0.0000    3  0.0000
    3  0.0000    3  0.0000    4  0.0000    4  0.0000    4  0.0000    4  0.0000
    5  0.0000    5  0.0000    6  0.0000    6  0.0000    7  0.0000    8  0.0000
    9  0.0000    9  0.0000   10  0.0000   10  0.0000   11  0.0000   11  0.0000
   12  0.0000   12  0.0000
   3    1  0.0000    1  0.0000    1  0.0000    1  0.0000    2  0.0000    2  0.0000
    2  0.0000    2  0.0000    4  0.0000    4  0.0000    4  0.0000    4  0.0000
    5  0.0000    5  0.0000    6  0.0000    6  0.0000    7  0.0000    7  0.0000
    8  0.0000    8  0.0000    9  0.0000   10  0.0000   11  0.0000   11  0.0000
   12  0.0000   12  0.0000
   4    1  0.0000    1  0.0000    1  0.0000    1  0.0000    2  0.0000    2  0.0000
    2  0.0000    2  0.0000    3  0.0000    3  0.0000    3  0.0000    3  0.0000
    5  0.0000    5  0.0000    6  0.0000    6  0.0000    7  0.0000    7  0.0000
    8  0.0000    8  0.0000    9  0.0000    9  0.0000   10  0.0000   10  0.0000
   11  0.0000   12  0.0000
   5    1  0.0000    2  0.0000    2  0.0000    3  0.0000    3  0.0000    4  0.0000
    4  0.0000    6  0.0000    7  0.0000    7  0.0000    8  0.0000    8  0.0000
    9  0.0000    9  0.0000   10  0.0000   10  0.0000   11  0.0000   11  0.0000
   12  0.0000   12  0.0000
   6    1  0.0000    2  0.0000    2  0.0000    3  0.0000    3  0.0000    4  0.0000
    4  0.0000    5  0.0000    7  0.0000    7  0.0000    8  0.0000    8  0.0000
    9  0.0000    9  0.0000   10  0.0000   10  0.0000   11  0.0000   11  0.0000
   12  0.0000   12  0.0000
   7    1  0.0000    1  0.0000    2  0.0000    3  0.0000    3  0.0000    4  0.0000
    4  0.0000    5  0.0000    5  0.0000    6  0.0000    6  0.0000    8  0.0000
    9  0.0000    9  0.0000   10  0.0000   10  0.0000   11  0.0000   11  0.0000
   12  0.0000   12  0.0000
   8    1  0.0000    1  0.0000    2  0.0000    3  0.0000    3  0.0000    4  0.0000
    4  0.0000    5  0.0000    5  0.0000    6  0.0000    6  0.0000    7  0.0000
    9  0.0000    9  0.0000   10  0.0000   10  0.0000   11  0.0000   11  0.0000
   12  0.0000   12  0.0000
   9    1  0.0000    1  0.0000    2  0.0000    2  0.0000    3  0.0000    4  0.0000
    4  0.0000    5  0.0000    5  0.0000    6  0.0000    6  0.0000    7  0.0000
    7  0.0000    8  0.0000    8  0.0000   10  0.0000   11  0.0000   11  0.0000
   12  0.0000   12  0.0000
  10    1  0.0000    1  0.0000    2  0.0000    2  0.0000    3  0.0000    4  0.0000
    4  0.0000    5  0.0000    5  0.0000    6  0.0000    6  0.0000    7  0.0000
    7  0.0000    8  0.0000    8  0.0000    9  0.0000   11  0.0000   11  0.0000
   12  0.0000   12  0.0000
  11    1  0.0000    1  0.0000    2  0.0000    2  0.0000    3  0.0000    3  0.0000
    4  0.0000    5  0.0000    5  0.0000    6  0.0000    6  0.0000    7  0.0000
    7  0.0000    8  0.0000    8  0.0000    9  0.0000    9  0.0000   10  0.0000
   10  0.0000   12  0.0000
  12    1  0.0000    1  0.0000    2  0.0000    2  0.0000    3  0.0000    3  0.0000
    4  0.0000    5  0.0000    5  0.0000    6  0.0000    6  0.0000    7  0.0000
    7  0.0000    8  0.0000    8  0.0000    9  0.0000    9  0.0000   10  0.0000
   10  0.0000   11  0.0000

  ReaxFF: Bond Order pi-pi prime: 

   1    2  0.0000    2  0.0000    2  0.0000    2  0.0000    3  0.0000    3  0.0000
    3  0.0000    3  0.0000    4  0.0000    4  0.0000    4  0.0000    4  0.0000
    5  0.0000    6  0.0000    7  0.0000    7  0.0000    8  0.0000    8  0.0000
    9  0.0000    9  0.0000   10  0.0000   10  0.0000   11  0.0000   11  0.0000
   12  0.0000   12  0.0000
   2    1  0.0000    1  0.0000    1  0.0000    1  0.0000    3  0.0000    3  0.0000
    3  0.0000    3  0.0000    4  0.0000    4  0.0000    4  0.0000    4  0.0000
    5  0.0000    5  0.0000    6  0.0000    6  0.0000    7  0.0000    8  0.0000
    9  0.0000    9  0.0000   10  0.0000   10  0.0000   11  0.0000   11  0.0000
   12  0.0000   12  0.0000
   3    1  0.0000    1  0.0000    1  0.0000    1  0.0000    2  0.0000    2  0.0000
    2  0.0000    2  0.0000    4  0.0000    4  0.0000    4  0.0000    4  0.0000
    5  0.0000    5  0.0000    6  0.0000    6  0.0000    7  0.0000    7  0.0000
    8  0.0000    8  0.0000    9  0.0000   10  0.0000   11  0.0000   11  0.0000
   12  0.0000   12  0.0000
   4    1  0.0000    1  0.0000    1  0.0000    1  0.0000    2  0.0000    2  0.0000
    2  0.0000    2  0.0000    3  0.0000    3  0.0000    3  0.0000    3  0.0000
    5  0.0000    5  0.0000    6  0.0000    6  0.0000    7  0.0000    7  0.0000
    8  0.0000    8  0.0000    9  0.0000    9  0.0000   10  0.0000   10  0.0000
   11  0.0000   12  0.0000
   5    1  0.0000    2  0.0000    2  0.0000    3  0.0000    3  0.0000    4  0.0000
    4  0.0000    6  0.0000    7  0.0000    7  0.0000    8  0.0000    8  0.0000
    9  0.0000    9  0.0000   10  0.0000   10  0.0000   11  0.0000   11  0.0000
   12  0.0000   12  0.0000
   6    1  0.0000    2  0.0000    2  0.0000    3  0.0000    3  0.0000    4  0.0000
    4  0.0000    5  0.0000    7  0.0000    7  0.0000    8  0.0000    8  0.0000
    9  0.0000    9  0.0000   10  0.0000   10  0.0000   11  0.0000   11  0.0000
   12  0.0000   12  0.0000
   7    1  0.0000    1  0.0000    2  0.0000    3  0.0000    3  0.0000    4  0.0000
    4  0.0000    5  0.0000    5  0.0000    6  0.0000    6  0.0000    8  0.0000
    9  0.0000    9  0.0000   10  0.0000   10  0.0000   11  0.0000   11  0.0000
   12  0.0000   12  0.0000
   8    1  0.0000    1  0.0000    2  0.0000    3  0.0000    3  0.0000    4  0.0000
    4  0.0000    5  0.0000    5  0.0000    6  0.0000    6  0.0000    7  0.0000
    9  0.0000    9  0.0000   10  0.0000   10  0.0000   11  0.0000   11  0.0000
   12  0.0000   12  0.0000
   9    1  0.0000    1  0.0000    2  0.0000    2  0.0000    3  0.0000    4  0.0000
    4  0.0000    5  0.0000    5  0.0000    6  0.0000    6  0.0000    7  0.0000
    7  0.0000    8  0.0000    8  0.0000   10  0.0000   11  0.0000   11  0.0000
   12  0.0000   12  0.0000
  10    1  0.0000    1  0.0000    2  0.0000    2  0.0000    3  0.0000    4  0.0000
    4  0.0000    5  0.0000    5  0.0000    6  0.0000    6  0.0000    7  0.0000
    7  0.0000    8  0.0000    8  0.0000    9  0.0000   11  0.0000   11  0.0000
   12  0.0000   12  0.0000
  11    1  0.0000    1  0.0000    2  0.0000    2  0.0000    3  0.0000    3  0.0000
    4  0.0000    5  0.0000    5  0.0000    6  0.0000    6  0.0000    7  0.0000
    7  0.0000    8  0.0000    8  0.0000    9  0.0000    9  0.0000   10  0.0000
   10  0.0000   12  0.0000
  12    1  0.0000    1  0.0000    2  0.0000    2  0.0000    3  0.0000    3  0.0000
    4  0.0000    5  0.0000    5  0.0000    6  0.0000    6  0.0000    7  0.0000
    7  0.0000    8  0.0000    8  0.0000    9  0.0000    9  0.0000   10  0.0000
   10  0.0000   11  0.0000



  ReaxFF: Delta and Bond Order: 

   1  2.764770    2  0.0024    2  0.0024    2  0.0024    2  0.0024    3  0.0024    3  0.0024
    3  0.0024    3  0.0024    4  0.0024    4  0.0024    4  0.0024    4  0.0024
    5  0.2404    6  0.2404    7  0.0108    7  0.8651    8  0.8651    8  0.0108
    9  0.0108    9  0.8651   10  0.8651   10  0.0108   11  0.0108   11  0.8651
   12  0.8651   12  0.0108
   2  2.764770    1  0.0024    1  0.0024    1  0.0024    1  0.0024    3  0.0024    3  0.0024
    3  0.0024    3  0.0024    4  0.0024    4  0.0024    4  0.0024    4  0.0024
    5  0.8651    5  0.0108    6  0.0108    6  0.8651    7  0.2404    8  0.2404
    9  0.0108    9  0.8651   10  0.8651   10  0.0108   11  0.8651   11  0.0108
   12  0.0108   12  0.8651
   3  2.764770    1  0.0024    1  0.0024    1  0.0024    1  0.0024    2  0.0024    2  0.0024
    2  0.0024    2  0.0024    4  0.0024    4  0.0024    4  0.0024    4  0.0024
    5  0.8651    5  0.0108    6  0.0108    6  0.8651    7  0.8651    7  0.0108
    8  0.0108    8  0.8651    9  0.2404   10  0.2404   11  0.0108   11  0.8651
   12  0.8651   12  0.0108
   4  2.764770    1  0.0024    1  0.0024    1  0.0024    1  0.0024    2  0.0024    2  0.0024
    2  0.0024    2  0.0024    3  0.0024    3  0.0024    3  0.0024    3  0.0024
    5  0.8651    5  0.0108    6  0.0108    6  0.8651    7  0.0108    7  0.8651
    8  0.8651    8  0.0108    9  0.8651    9  0.0108   10  0.0108   10  0.8651
   11  0.2404   12  0.2404
   5  1.466869    1  0.2404    2  0.8651    2  0.0108    3  0.8651    3  0.0108    4  0.8651
    4  0.0108    6  0.0426    7  0.0048    7  0.0048    8  0.0879    8  0.0879
    9  0.0048    9  0.0048   10  0.0879   10  0.0879   11  0.0048   11  0.0048
   12  0.0879   12  0.0879
   6  1.466869    1  0.2404    2  0.0108    2  0.8651    3  0.0108    3  0.8651    4  0.0108
    4  0.8651    5  0.0426    7  0.0879    7  0.0879    8  0.0048    8  0.0048
    9  0.0879    9  0.0879   10  0.0048   10  0.0048   11  0.0879   11  0.0879
   12  0.0048   12  0.0048
   7  1.466869    1  0.0108    1  0.8651    2  0.2404    3  0.8651    3  0.0108    4  0.0108
    4  0.8651    5  0.0048    5  0.0048    6  0.0879    6  0.0879    8  0.0426
    9  0.0048    9  0.0048   10  0.0879   10  0.0879   11  0.0048   11  0.0048
   12  0.0879   12  0.0879
   8  1.466869    1  0.8651    1  0.0108    2  0.2404    3  0.0108    3  0.8651    4  0.8651
    4  0.0108    5  0.0879    5  0.0879    6  0.0048    6  0.0048    7  0.0426
    9  0.0879    9  0.0879   10  0.0048   10  0.0048   11  0.0879   11  0.0879
   12  0.0048   12  0.0048
   9  1.466869    1  0.0108    1  0.8651    2  0.0108    2  0.8651    3  0.2404    4  0.8651
    4  0.0108    5  0.0048    5  0.0048    6  0.0879    6  0.0879    7  0.0048
    7  0.0048    8  0.0879    8  0.0879   10  0.0426   11  0.0048   11  0.0048
   12  0.0879   12  0.0879
  10  1.466869    1  0.8651    1  0.0108    2  0.8651    2  0.0108    3  0.2404    4  0.0108
    4  0.8651    5  0.0879    5  0.0879    6  0.0048    6  0.0048    7  0.0879
    7  0.0879    8  0.0048    8  0.0048    9  0.0426   11  0.0879   11  0.0879
   12  0.0048   12  0.0048
  11  1.466869    1  0.0108    1  0.8651    2  0.8651    2  0.0108    3  0.0108    3  0.8651
    4  0.2404    5  0.0048    5  0.0048    6  0.0879    6  0.0879    7  0.0048
    7  0.0048    8  0.0879    8  0.0879    9  0.0048    9  0.0048   10  0.0879
   10  0.0879   12  0.0426
  12  1.466869    1  0.8651    1  0.0108    2  0.0108    2  0.8651    3  0.8651    3  0.0108
    4  0.2404    5  0.0879    5  0.0879    6  0.0048    6  0.0048    7  0.0879
    7  0.0879    8  0.0048    8  0.0048    9  0.0879    9  0.0879   10  0.0048
   10  0.0048   11  0.0426

  ReaxFF: Delta lone pair: 

   1  1.000000
   2  1.000000
   3  1.000000
   4  1.000000
   5  0.999998
   6  0.999998
   7  0.999998
   8  0.999998
   9  0.999998
  10  0.999998
  11  0.999998
  12  0.999998


  ReaxFF : Energy contributions: 

  E(bond)     =     -78.23660866 eV =    -1804.1674905 kcal
  E(bpen)     =       0.00000000 eV =        0.0000000 kcal
  E(lonepair) =       1.21399347 eV =       27.9951750 kcal
  E(over)     =      12.78993990 eV =      294.9411301 kcal
  E(under)    =       0.00000000 eV =        0.0000000 kcal
  E(val)      =      16.66895737 eV =      384.3928245 kcal
  E(pen)      =       0.00000000 eV =        0.0000000 kcal
  E(coa)      =       0.00000000 eV =        0.0000000 kcal
  E(tors)     =       2.35487488 eV =       54.3043568 kcal
  E(conj)     =       0.00000000 eV =        0.0000000 kcal
  E(hb)       =       0.00000000 eV =        0.0000000 kcal
  E(vdw)      =       6.41369507 eV =      147.9023739 kcal
  E(coulomb)  =      -3.34422152 eV =      -77.1190860 kcal
  E(self)     =      -0.10608718 eV =       -2.4464129 kcal

  Components of energy : 

--------------------------------------------------------------------------------
  Interatomic potentials     =           0.00000000 eV    
  ReaxFF force field         =         -42.24545667 eV    
  Monopole - monopole (real) =           0.00000000 eV    
  Monopole - monopole (recip)=           0.00000000 eV    
  Monopole - monopole (total)=           0.00000000 eV    
--------------------------------------------------------------------------------
  Total lattice energy       =         -42.24545667 eV    
--------------------------------------------------------------------------------
  Total lattice energy       =           -4076.0408 kJ/(mole unit cells)
--------------------------------------------------------------------------------


  Number of variables =       39

  Maximum number of calculations  =           100
  Maximum Hessian update interval =            10
  Maximum step size               =   1.000000000
  Maximum parameter tolerance     =   0.000010000
  Maximum function  tolerance     =   0.000010000
  Maximum gradient  tolerance     =   0.001000000
  Maximum gradient  component     =   0.010000000

  Symmetry not applied to optimisation

  Cell parameters to be optimised using strains

  Newton-Raphson optimiser to be used

  BFGS hessian update to be used

  Start of bulk optimisation :


  ReaxFF: Delta and Bond Order prime: 

   1  2.764770    2  0.0024    2  0.0024    2  0.0024    2  0.0024    3  0.0024    3  0.0024
    3  0.0024    3  0.0024    4  0.0024    4  0.0024    4  0.0024    4  0.0024
    5  0.2404    6  0.2404    7  0.0108    7  0.8651    8  0.8651    8  0.0108
    9  0.0108    9  0.8651   10  0.8651   10  0.0108   11  0.0108   11  0.8651
   12  0.8651   12  0.0108
   2  2.764770    1  0.0024    1  0.0024    1  0.0024    1  0.0024    3  0.0024    3  0.0024
    3  0.0024    3  0.0024    4  0.0024    4  0.0024    4  0.0024    4  0.0024
    5  0.8651    5  0.0108    6  0.0108    6  0.8651    7  0.2404    8  0.2404
    9  0.0108    9  0.8651   10  0.8651   10  0.0108   11  0.8651   11  0.0108
   12  0.0108   12  0.8651
   3  2.764770    1  0.0024    1  0.0024    1  0.0024    1  0.0024    2  0.0024    2  0.0024
    2  0.0024    2  0.0024    4  0.0024    4  0.0024    4  0.0024    4  0.0024
    5  0.8651    5  0.0108    6  0.0108    6  0.8651    7  0.8651    7  0.0108
    8  0.0108    8  0.8651    9  0.2404   10  0.2404   11  0.0108   11  0.8651
   12  0.8651   12  0.0108
   4  2.764770    1  0.0024    1  0.0024    1  0.0024    1  0.0024    2  0.0024    2  0.0024
    2  0.0024    2  0.0024    3  0.0024    3  0.0024    3  0.0024    3  0.0024
    5  0.8651    5  0.0108    6  0.0108    6  0.8651    7  0.0108    7  0.8651
    8  0.8651    8  0.0108    9  0.8651    9  0.0108   10  0.0108   10  0.8651
   11  0.2404   12  0.2404
   5  2.093572    1  0.2404    2  0.8651    2  0.0108    3  0.8651    3  0.0108    4  0.8651
    4  0.0108    6  0.0873    7  0.0097    7  0.0097    8  0.1800    8  0.1800
    9  0.0097    9  0.0097   10  0.1800   10  0.1800   11  0.0097   11  0.0097
   12  0.1800   12  0.1800
   6  2.093572    1  0.2404    2  0.0108    2  0.8651    3  0.0108    3  0.8651    4  0.0108
    4  0.8651    5  0.0873    7  0.1800    7  0.1800    8  0.0097    8  0.0097
    9  0.1800    9  0.1800   10  0.0097   10  0.0097   11  0.1800   11  0.1800
   12  0.0097   12  0.0097
   7  2.093572    1  0.0108    1  0.8651    2  0.2404    3  0.8651    3  0.0108    4  0.0108
    4  0.8651    5  0.0097    5  0.0097    6  0.1800    6  0.1800    8  0.0873
    9  0.0097    9  0.0097   10  0.1800   10  0.1800   11  0.0097   11  0.0097
   12  0.1800   12  0.1800
   8  2.093572    1  0.8651    1  0.0108    2  0.2404    3  0.0108    3  0.8651    4  0.8651
    4  0.0108    5  0.1800    5  0.1800    6  0.0097    6  0.0097    7  0.0873
    9  0.1800    9  0.1800   10  0.0097   10  0.0097   11  0.1800   11  0.1800
   12  0.0097   12  0.0097
   9  2.093572    1  0.0108    1  0.8651    2  0.0108    2  0.8651    3  0.2404    4  0.8651
    4  0.0108    5  0.0097    5  0.0097    6  0.1800    6  0.1800    7  0.0097
    7  0.0097    8  0.1800    8  0.1800   10  0.0873   11  0.0097   11  0.0097
   12  0.1800   12  0.1800
  10  2.093572    1  0.8651    1  0.0108    2  0.8651    2  0.0108    3  0.2404    4  0.0108
    4  0.8651    5  0.1800    5  0.1800    6  0.0097    6  0.0097    7  0.1800
    7  0.1800    8  0.0097    8  0.0097    9  0.0873   11  0.1800   11  0.1800
   12  0.0097   12  0.0097
  11  2.093572    1  0.0108    1  0.8651    2  0.8651    2  0.0108    3  0.0108    3  0.8651
    4  0.2404    5  0.0097    5  0.0097    6  0.1800    6  0.1800    7  0.0097
    7  0.0097    8  0.1800    8  0.1800    9  0.0097    9  0.0097   10  0.1800
   10  0.1800   12  0.0873
  12  2.093572    1  0.8651    1  0.0108    2  0.0108    2  0.8651    3  0.8651    3  0.0108
    4  0.2404    5  0.1800    5  0.1800    6  0.0097    6  0.0097    7  0.1800
    7  0.1800    8  0.0097    8  0.0097    9  0.1800    9  0.1800   10  0.0097
   10  0.0097   11  0.0873

  ReaxFF: Bond Order sigma prime: 

   1    2  0.0024    2  0.0024    2  0.0024    2  0.0024    3  0.0024    3  0.0024
    3  0.0024    3  0.0024    4  0.0024    4  0.0024    4  0.0024    4  0.0024
    5  0.2404    6  0.2404    7  0.0108    7  0.8651    8  0.8651    8  0.0108
    9  0.0108    9  0.8651   10  0.8651   10  0.0108   11  0.0108   11  0.8651
   12  0.8651   12  0.0108
   2    1  0.0024    1  0.0024    1  0.0024    1  0.0024    3  0.0024    3  0.0024
    3  0.0024    3  0.0024    4  0.0024    4  0.0024    4  0.0024    4  0.0024
    5  0.8651    5  0.0108    6  0.0108    6  0.8651    7  0.2404    8  0.2404
    9  0.0108    9  0.8651   10  0.8651   10  0.0108   11  0.8651   11  0.0108
   12  0.0108   12  0.8651
   3    1  0.0024    1  0.0024    1  0.0024    1  0.0024    2  0.0024    2  0.0024
    2  0.0024    2  0.0024    4  0.0024    4  0.0024    4  0.0024    4  0.0024
    5  0.8651    5  0.0108    6  0.0108    6  0.8651    7  0.8651    7  0.0108
    8  0.0108    8  0.8651    9  0.2404   10  0.2404   11  0.0108   11  0.8651
   12  0.8651   12  0.0108
   4    1  0.0024    1  0.0024    1  0.0024    1  0.0024    2  0.0024    2  0.0024
    2  0.0024    2  0.0024    3  0.0024    3  0.0024    3  0.0024    3  0.0024
    5  0.8651    5  0.0108    6  0.0108    6  0.8651    7  0.0108    7  0.8651
    8  0.8651    8  0.0108    9  0.8651    9  0.0108   10  0.0108   10  0.8651
   11  0.2404   12  0.2404
   5    1  0.2404    2  0.8651    2  0.0108    3  0.8651    3  0.0108    4  0.8651
    4  0.0108    6  0.0873    7  0.0097    7  0.0097    8  0.1800    8  0.1800
    9  0.0097    9  0.0097   10  0.1800   10  0.1800   11  0.0097   11  0.0097
   12  0.1800   12  0.1800
   6    1  0.2404    2  0.0108    2  0.8651    3  0.0108    3  0.8651    4  0.0108
    4  0.8651    5  0.0873    7  0.1800    7  0.1800    8  0.0097    8  0.0097
    9  0.1800    9  0.1800   10  0.0097   10  0.0097   11  0.1800   11  0.1800
   12  0.0097   12  0.0097
   7    1  0.0108    1  0.8651    2  0.2404    3  0.8651    3  0.0108    4  0.0108
    4  0.8651    5  0.0097    5  0.0097    6  0.1800    6  0.1800    8  0.0873
    9  0.0097    9  0.0097   10  0.1800   10  0.1800   11  0.0097   11  0.0097
   12  0.1800   12  0.1800
   8    1  0.8651    1  0.0108    2  0.2404    3  0.0108    3  0.8651    4  0.8651
    4  0.0108    5  0.1800    5  0.1800    6  0.0097    6  0.0097    7  0.0873
    9  0.1800    9  0.1800   10  0.0097   10  0.0097   11  0.1800   11  0.1800
   12  0.0097   12  0.0097
   9    1  0.0108    1  0.8651    2  0.0108    2  0.8651    3  0.2404    4  0.8651
    4  0.0108    5  0.0097    5  0.0097    6  0.1800    6  0.1800    7  0.0097
    7  0.0097    8  0.1800    8  0.1800   10  0.0873   11  0.0097   11  0.0097
   12  0.1800   12  0.1800
  10    1  0.8651    1  0.0108    2  0.8651    2  0.0108    3  0.2404    4  0.0108
    4  0.8651    5  0.1800    5  0.1800    6  0.0097    6  0.0097    7  0.1800
    7  0.1800    8  0.0097    8  0.0097    9  0.0873   11  0.1800   11  0.1800
   12  0.0097   12  0.0097
  11    1  0.0108    1  0.8651    2  0.8651    2  0.0108    3  0.0108    3  0.8651
    4  0.2404    5  0.0097    5  0.0097    6  0.1800    6  0.1800    7  0.0097
    7  0.0097    8  0.1800    8  0.1800    9  0.0097    9  0.0097   10  0.1800
   10  0.1800   12  0.0873
  12    1  0.8651    1  0.0108    2  0.0108    2  0.8651    3  0.8651    3  0.0108
    4  0.2404    5  0.1800    5  0.1800    6  0.0097    6  0.0097    7  0.1800
    7  0.1800    8  0.0097    8  0.0097    9  0.1800    9  0.1800   10  0.0097
   10  0.0097   11  0.0873

  ReaxFF: Bond Order pi prime: 

   1    2  0.0000    2  0.0000    2  0.0000    2  0.0000    3  0.0000    3  0.0000
    3  0.0000    3  0.0000    4  0.0000    4  0.0000    4  0.0000    4  0.0000
    5  0.0000    6  0.0000    7  0.0000    7  0.0000    8  0.0000    8  0.0000
    9  0.0000    9  0.0000   10  0.0000   10  0.0000   11  0.0000   11  0.0000
   12  0.0000   12  0.0000
   2    1  0.0000    1  0.0000    1  0.0000    1  0.0000    3  0.0000    3  0.0000
    3  0.0000    3  0.0000    4  0.0000    4  0.0000    4  0.0000    4  0.0000
    5  0.0000    5  0.0000    6  0.0000    6  0.0000    7  0.0000    8  0.0000
    9  0.0000    9  0.0000   10  0.0000   10  0.0000   11  0.0000   11  0.0000
   12  0.0000   12  0.0000
   3    1  0.0000    1  0.0000    1  0.0000    1  0.0000    2  0.0000    2  0.0000
    2  0.0000    2  0.0000    4  0.0000    4  0.0000    4  0.0000    4  0.0000
    5  0.0000    5  0.0000    6  0.0000    6  0.0000    7  0.0000    7  0.0000
    8  0.0000    8  0.0000    9  0.0000   10  0.0000   11  0.0000   11  0.0000
   12  0.0000   12  0.0000
   4    1  0.0000    1  0.0000    1  0.0000    1  0.0000    2  0.0000    2  0.0000
    2  0.0000    2  0.0000    3  0.0000    3  0.0000    3  0.0000    3  0.0000
    5  0.0000    5  0.0000    6  0.0000    6  0.0000    7  0.0000    7  0.0000
    8  0.0000    8  0.0000    9  0.0000    9  0.0000   10  0.0000   10  0.0000
   11  0.0000   12  0.0000
   5    1  0.0000    2  0.0000    2  0.0000    3  0.0000    3  0.0000    4  0.0000
    4  0.0000    6  0.0000    7  0.0000    7  0.0000    8  0.0000    8  0.0000
    9  0.0000    9  0.0000   10  0.0000   10  0.0000   11  0.0000   11  0.0000
   12  0.0000   12  0.0000
   6    1  0.0000    2  0.0000    2  0.0000    3  0.0000    3  0.0000    4  0.0000
    4  0.0000    5  0.0000    7  0.0000    7  0.0000    8  0.0000    8  0.0000
    9  0.0000    9  0.0000   10  0.0000   10  0.0000   11  0.0000   11  0.0000
   12  0.0000   12  0.0000
   7    1  0.0000    1  0.0000    2  0.0000    3  0.0000    3  0.0000    4  0.0000
    4  0.0000    5  0.0000    5  0.0000    6  0.0000    6  0.0000    8  0.0000
    9  0.0000    9  0.0000   10  0.0000   10  0.0000   11  0.0000   11  0.0000
   12  0.0000   12  0.0000
   8    1  0.0000    1  0.0000    2  0.0000    3  0.0000    3  0.0000    4  0.0000
    4  0.0000    5  0.0000    5  0.0000    6  0.0000    6  0.0000    7  0.0000
    9  0.0000    9  0.0000   10  0.0000   10  0.0000   11  0.0000   11  0.0000
   12  0.0000   12  0.0000
   9    1  0.0000    1  0.0000    2  0.0000    2  0.0000    3  0.0000    4  0.0000
    4  0.0000    5  0.0000    5  0.0000    6  0.0000    6  0.0000    7  0.0000
    7  0.0000    8  0.0000    8  0.0000   10  0.0000   11  0.0000   11  0.0000
   12  0.0000   12  0.0000
  10    1  0.0000    1  0.0000    2  0.0000    2  0.0000    3  0.0000    4  0.0000
    4  0.0000    5  0.0000    5  0.0000    6  0.0000    6  0.0000    7  0.0000
    7  0.0000    8  0.0000    8  0.0000    9  0.0000   11  0.0000   11  0.0000
   12  0.0000   12  0.0000
  11    1  0.0000    1  0.0000    2  0.0000    2  0.0000    3  0.0000    3  0.0000
    4  0.0000    5  0.0000    5  0.0000    6  0.0000    6  0.0000    7  0.0000
    7  0.0000    8  0.0000    8  0.0000    9  0.0000    9  0.0000   10  0.0000
   10  0.0000   12  0.0000
  12    1  0.0000    1  0.0000    2  0.0000    2  0.0000    3  0.0000    3  0.0000
    4  0.0000    5  0.0000    5  0.0000    6  0.0000    6  0.0000    7  0.0000
    7  0.0000    8  0.0000    8  0.0000    9  0.0000    9  0.0000   10  0.0000
   10  0.0000   11  0.0000

  ReaxFF: Bond Order pi-pi prime: 

   1    2  0.0000    2  0.0000    2  0.0000    2  0.0000    3  0.0000    3  0.0000
    3  0.0000    3  0.0000    4  0.0000    4  0.0000    4  0.0000    4  0.0000
    5  0.0000    6  0.0000    7  0.0000    7  0.0000    8  0.0000    8  0.0000
    9  0.0000    9  0.0000   10  0.0000   10  0.0000   11  0.0000   11  0.0000
   12  0.0000   12  0.0000
   2    1  0.0000    1  0.0000    1  0.0000    1  0.0000    3  0.0000    3  0.0000
    3  0.0000    3  0.0000    4  0.0000    4  0.0000    4  0.0000    4  0.0000
    5  0.0000    5  0.0000    6  0.0000    6  0.0000    7  0.0000    8  0.0000
    9  0.0000    9  0.0000   10  0.0000   10  0.0000   11  0.0000   11  0.0000
   12  0.0000   12  0.0000
   3    1  0.0000    1  0.0000    1  0.0000    1  0.0000    2  0.0000    2  0.0000
    2  0.0000    2  0.0000    4  0.0000    4  0.0000    4  0.0000    4  0.0000
    5  0.0000    5  0.0000    6  0.0000    6  0.0000    7  0.0000    7  0.0000
    8  0.0000    8  0.0000    9  0.0000   10  0.0000   11  0.0000   11  0.0000
   12  0.0000   12  0.0000
   4    1  0.0000    1  0.0000    1  0.0000    1  0.0000    2  0.0000    2  0.0000
    2  0.0000    2  0.0000    3  0.0000    3  0.0000    3  0.0000    3  0.0000
    5  0.0000    5  0.0000    6  0.0000    6  0.0000    7  0.0000    7  0.0000
    8  0.0000    8  0.0000    9  0.0000    9  0.0000   10  0.0000   10  0.0000
   11  0.0000   12  0.0000
   5    1  0.0000    2  0.0000    2  0.0000    3  0.0000    3  0.0000    4  0.0000
    4  0.0000    6  0.0000    7  0.0000    7  0.0000    8  0.0000    8  0.0000
    9  0.0000    9  0.0000   10  0.0000   10  0.0000   11  0.0000   11  0.0000
   12  0.0000   12  0.0000
   6    1  0.0000    2  0.0000    2  0.0000    3  0.0000    3  0.0000    4  0.0000
    4  0.0000    5  0.0000    7  0.0000    7  0.0000    8  0.0000    8  0.0000
    9  0.0000    9  0.0000   10  0.0000   10  0.0000   11  0.0000   11  0.0000
   12  0.0000   12  0.0000
   7    1  0.0000    1  0.0000    2  0.0000    3  0.0000    3  0.0000    4  0.0000
    4  0.0000    5  0.0000    5  0.0000    6  0.0000    6  0.0000    8  0.0000
    9  0.0000    9  0.0000   10  0.0000   10  0.0000   11  0.0000   11  0.0000
   12  0.0000   12  0.0000
   8    1  0.0000    1  0.0000    2  0.0000    3  0.0000    3  0.0000    4  0.0000
    4  0.0000    5  0.0000    5  0.0000    6  0.0000    6  0.0000    7  0.0000
    9  0.0000    9  0.0000   10  0.0000   10  0.0000   11  0.0000   11  0.0000
   12  0.0000   12  0.0000
   9    1  0.0000    1  0.0000    2  0.0000    2  0.0000    3  0.0000    4  0.0000
    4  0.0000    5  0.0000    5  0.0000    6  0.0000    6  0.0000    7  0.0000
    7  0.0000    8  0.0000    8  0.0000   10  0.0000   11  0.0000   11  0.0000
   12  0.0000   12  0.0000
  10    1  0.0000    1  0.0000    2  0.0000    2  0.0000    3  0.0000    4  0.0000
    4  0.0000    5  0.0000    5  0.0000    6  0.0000    6  0.0000    7  0.0000
    7  0.0000    8  0.0000    8  0.0000    9  0.0000   11  0.0000   11  0.0000
   12  0.0000   12  0.0000
  11    1  0.0000    1  0.0000    2  0.0000    2  0.0000    3  0.0000    3  0.0000
    4  0.0000    5  0.0000    5  0.0000    6  0.0000    6  0.0000    7  0.0000
    7  0.0000    8  0.0000    8  0.0000    9  0.0000    9  0.0000   10  0.0000
   10  0.0000   12  0.0000
  12    1  0.0000    1  0.0000    2  0.0000    2  0.0000    3  0.0000    3  0.0000
    4  0.0000    5  0.0000    5  0.0000    6  0.0000    6  0.0000    7  0.0000
    7  0.0000    8  0.0000    8  0.0000    9  0.0000    9  0.0000   10  0.0000
   10  0.0000   11  0.0000



  ReaxFF: Delta and Bond Order: 

   1  2.764770    2  0.0024    2  0.0024    2  0.0024    2  0.0024    3  0.0024    3  0.0024
    3  0.0024    3  0.0024    4  0.0024    4  0.0024    4  0.0024    4  0.0024
    5  0.2404    6  0.2404    7  0.0108    7  0.8651    8  0.8651    8  0.0108
    9  0.0108    9  0.8651   10  0.8651   10  0.0108   11  0.0108   11  0.8651
   12  0.8651   12  0.0108
   2  2.764770    1  0.0024    1  0.0024    1  0.0024    1  0.0024    3  0.0024    3  0.0024
    3  0.0024    3  0.0024    4  0.0024    4  0.0024    4  0.0024    4  0.0024
    5  0.8651    5  0.0108    6  0.0108    6  0.8651    7  0.2404    8  0.2404
    9  0.0108    9  0.8651   10  0.8651   10  0.0108   11  0.8651   11  0.0108
   12  0.0108   12  0.8651
   3  2.764770    1  0.0024    1  0.0024    1  0.0024    1  0.0024    2  0.0024    2  0.0024
    2  0.0024    2  0.0024    4  0.0024    4  0.0024    4  0.0024    4  0.0024
    5  0.8651    5  0.0108    6  0.0108    6  0.8651    7  0.8651    7  0.0108
    8  0.0108    8  0.8651    9  0.2404   10  0.2404   11  0.0108   11  0.8651
   12  0.8651   12  0.0108
   4  2.764770    1  0.0024    1  0.0024    1  0.0024    1  0.0024    2  0.0024    2  0.0024
    2  0.0024    2  0.0024    3  0.0024    3  0.0024    3  0.0024    3  0.0024
    5  0.8651    5  0.0108    6  0.0108    6  0.8651    7  0.0108    7  0.8651
    8  0.8651    8  0.0108    9  0.8651    9  0.0108   10  0.0108   10  0.8651
   11  0.2404   12  0.2404
   5  1.466869    1  0.2404    2  0.8651    2  0.0108    3  0.8651    3  0.0108    4  0.8651
    4  0.0108    6  0.0426    7  0.0048    7  0.0048    8  0.0879    8  0.0879
    9  0.0048    9  0.0048   10  0.0879   10  0.0879   11  0.0048   11  0.0048
   12  0.0879   12  0.0879
   6  1.466869    1  0.2404    2  0.0108    2  0.8651    3  0.0108    3  0.8651    4  0.0108
    4  0.8651    5  0.0426    7  0.0879    7  0.0879    8  0.0048    8  0.0048
    9  0.0879    9  0.0879   10  0.0048   10  0.0048   11  0.0879   11  0.0879
   12  0.0048   12  0.0048
   7  1.466869    1  0.0108    1  0.8651    2  0.2404    3  0.8651    3  0.0108    4  0.0108
    4  0.8651    5  0.0048    5  0.0048    6  0.0879    6  0.0879    8  0.0426
    9  0.0048    9  0.0048   10  0.0879   10  0.0879   11  0.0048   11  0.0048
   12  0.0879   12  0.0879
   8  1.466869    1  0.8651    1  0.0108    2  0.2404    3  0.0108    3  0.8651    4  0.8651
    4  0.0108    5  0.0879    5  0.0879    6  0.0048    6  0.0048    7  0.0426
    9  0.0879    9  0.0879   10  0.0048   10  0.0048   11  0.0879   11  0.0879
   12  0.0048   12  0.0048
   9  1.466869    1  0.0108    1  0.8651    2  0.0108    2  0.8651    3  0.2404    4  0.8651
    4  0.0108    5  0.0048    5  0.0048    6  0.0879    6  0.0879    7  0.0048
    7  0.0048    8  0.0879    8  0.0879   10  0.0426   11  0.0048   11  0.0048
   12  0.0879   12  0.0879
  10  1.466869    1  0.8651    1  0.0108    2  0.8651    2  0.0108    3  0.2404    4  0.0108
    4  0.8651    5  0.0879    5  0.0879    6  0.0048    6  0.0048    7  0.0879
    7  0.0879    8  0.0048    8  0.0048    9  0.0426   11  0.0879   11  0.0879
   12  0.0048   12  0.0048
  11  1.466869    1  0.0108    1  0.8651    2  0.8651    2  0.0108    3  0.0108    3  0.8651
    4  0.2404    5  0.0048    5  0.0048    6  0.0879    6  0.0879    7  0.0048
    7  0.0048    8  0.0879    8  0.0879    9  0.0048    9  0.0048   10  0.0879
   10  0.0879   12  0.0426
  12  1.466869    1  0.8651    1  0.0108    2  0.0108    2  0.8651    3  0.8651    3  0.0108
    4  0.2404    5  0.0879    5  0.0879    6  0.0048    6  0.0048    7  0.0879
    7  0.0879    8  0.0048    8  0.0048    9  0.0879    9  0.0879   10  0.0048
   10  0.0048   11  0.0426

  ReaxFF: Delta lone pair: 

   1  1.000000
   2  1.000000
   3  1.000000
   4  1.000000
   5  0.999998
   6  0.999998
   7  0.999998
   8  0.999998
   9  0.999998
  10  0.999998
  11  0.999998
  12  0.999998


  ReaxFF : Energy contributions: 

  E(bond)     =     -78.23660866 eV =    -1804.1674905 kcal
  E(bpen)     =       0.00000000 eV =        0.0000000 kcal
  E(lonepair) =       1.21399347 eV =       27.9951750 kcal
  E(over)     =      12.78993990 eV =      294.9411301 kcal
  E(under)    =       0.00000000 eV =        0.0000000 kcal
  E(val)      =      16.66895737 eV =      384.3928245 kcal
  E(pen)      =       0.00000000 eV =        0.0000000 kcal
  E(coa)      =       0.00000000 eV =        0.0000000 kcal
  E(tors)     =       2.35487488 eV =       54.3043568 kcal
  E(conj)     =       0.00000000 eV =        0.0000000 kcal
  E(hb)       =       0.00000000 eV =        0.0000000 kcal
  E(vdw)      =       6.41369507 eV =      147.9023739 kcal
  E(coulomb)  =      -3.34422152 eV =      -77.1190860 kcal
  E(self)     =      -0.10608718 eV =       -2.4464129 kcal
  Cycle:      0 Energy:       -42.245457  Gnorm:      0.788819  CPU:    0.033
  ** Cosine =   1.000000

  ReaxFF: Delta and Bond Order prime: 

   1  2.708100    2  0.0018    2  0.0018    2  0.0018    2  0.0018    3  0.0018    3  0.0018
    3  0.0018    3  0.0018    4  0.0018    4  0.0018    4  0.0018    4  0.0018
    5  0.2299    6  0.2299    7  0.0095    7  0.8616    8  0.8616    8  0.0095
    9  0.0095    9  0.8616   10  0.8616   10  0.0095   11  0.0095   11  0.8616
   12  0.8616   12  0.0095
   2  2.708100    1  0.0018    1  0.0018    1  0.0018    1  0.0018    3  0.0018    3  0.0018
    3  0.0018    3  0.0018    4  0.0018    4  0.0018    4  0.0018    4  0.0018
    5  0.8616    5  0.0095    6  0.0095    6  0.8616    7  0.2299    8  0.2299
    9  0.0095    9  0.8616   10  0.8616   10  0.0095   11  0.8616   11  0.0095
   12  0.0095   12  0.8616
   3  2.708100    1  0.0018    1  0.0018    1  0.0018    1  0.0018    2  0.0018    2  0.0018
    2  0.0018    2  0.0018    4  0.0018    4  0.0018    4  0.0018    4  0.0018
    5  0.8616    5  0.0095    6  0.0095    6  0.8616    7  0.8616    7  0.0095
    8  0.0095    8  0.8616    9  0.2299   10  0.2299   11  0.0095   11  0.8616
   12  0.8616   12  0.0095
   4  2.708100    1  0.0018    1  0.0018    1  0.0018    1  0.0018    2  0.0018    2  0.0018
    2  0.0018    2  0.0018    3  0.0018    3  0.0018    3  0.0018    3  0.0018
    5  0.8616    5  0.0095    6  0.0095    6  0.8616    7  0.0095    7  0.8616
    8  0.8616    8  0.0095    9  0.8616    9  0.0095   10  0.0095   10  0.8616
   11  0.2299   12  0.2299
   5  2.004639    1  0.2299    2  0.8616    2  0.0095    3  0.8616    3  0.0095    4  0.8616
    4  0.0095    6  0.0828    7  0.0085    7  0.0085    8  0.1713    8  0.1713
    9  0.0085    9  0.0085   10  0.1713   10  0.1713   11  0.0085   11  0.0085
   12  0.1713   12  0.1713
   6  2.004639    1  0.2299    2  0.0095    2  0.8616    3  0.0095    3  0.8616    4  0.0095
    4  0.8616    5  0.0828    7  0.1713    7  0.1713    8  0.0085    8  0.0085
    9  0.1713    9  0.1713   10  0.0085   10  0.0085   11  0.1713   11  0.1713
   12  0.0085   12  0.0085
   7  2.004639    1  0.0095    1  0.8616    2  0.2299    3  0.8616    3  0.0095    4  0.0095
    4  0.8616    5  0.0085    5  0.0085    6  0.1713    6  0.1713    8  0.0828
    9  0.0085    9  0.0085   10  0.1713   10  0.1713   11  0.0085   11  0.0085
   12  0.1713   12  0.1713
   8  2.004639    1  0.8616    1  0.0095    2  0.2299    3  0.0095    3  0.8616    4  0.8616
    4  0.0095    5  0.1713    5  0.1713    6  0.0085    6  0.0085    7  0.0828
    9  0.1713    9  0.1713   10  0.0085   10  0.0085   11  0.1713   11  0.1713
   12  0.0085   12  0.0085
   9  2.004639    1  0.0095    1  0.8616    2  0.0095    2  0.8616    3  0.2299    4  0.8616
    4  0.0095    5  0.0085    5  0.0085    6  0.1713    6  0.1713    7  0.0085
    7  0.0085    8  0.1713    8  0.1713   10  0.0828   11  0.0085   11  0.0085
   12  0.1713   12  0.1713
  10  2.004639    1  0.8616    1  0.0095    2  0.8616    2  0.0095    3  0.2299    4  0.0095
    4  0.8616    5  0.1713    5  0.1713    6  0.0085    6  0.0085    7  0.1713
    7  0.1713    8  0.0085    8  0.0085    9  0.0828   11  0.1713   11  0.1713
   12  0.0085   12  0.0085
  11  2.004639    1  0.0095    1  0.8616    2  0.8616    2  0.0095    3  0.0095    3  0.8616
    4  0.2299    5  0.0085    5  0.0085    6  0.1713    6  0.1713    7  0.0085
    7  0.0085    8  0.1713    8  0.1713    9  0.0085    9  0.0085   10  0.1713
   10  0.1713   12  0.0828
  12  2.004639    1  0.8616    1  0.0095    2  0.0095    2  0.8616    3  0.8616    3  0.0095
    4  0.2299    5  0.1713    5  0.1713    6  0.0085    6  0.0085    7  0.1713
    7  0.1713    8  0.0085    8  0.0085    9  0.1713    9  0.1713   10  0.0085
   10  0.0085   11  0.0828

  ReaxFF: Bond Order sigma prime: 

   1    2  0.0018    2  0.0018    2  0.0018    2  0.0018    3  0.0018    3  0.0018
    3  0.0018    3  0.0018    4  0.0018    4  0.0018    4  0.0018    4  0.0018
    5  0.2299    6  0.2299    7  0.0095    7  0.8616    8  0.8616    8  0.0095
    9  0.0095    9  0.8616   10  0.8616   10  0.0095   11  0.0095   11  0.8616
   12  0.8616   12  0.0095
   2    1  0.0018    1  0.0018    1  0.0018    1  0.0018    3  0.0018    3  0.0018
    3  0.0018    3  0.0018    4  0.0018    4  0.0018    4  0.0018    4  0.0018
    5  0.8616    5  0.0095    6  0.0095    6  0.8616    7  0.2299    8  0.2299
    9  0.0095    9  0.8616   10  0.8616   10  0.0095   11  0.8616   11  0.0095
   12  0.0095   12  0.8616
   3    1  0.0018    1  0.0018    1  0.0018    1  0.0018    2  0.0018    2  0.0018
    2  0.0018    2  0.0018    4  0.0018    4  0.0018    4  0.0018    4  0.0018
    5  0.8616    5  0.0095    6  0.0095    6  0.8616    7  0.8616    7  0.0095
    8  0.0095    8  0.8616    9  0.2299   10  0.2299   11  0.0095   11  0.8616
   12  0.8616   12  0.0095
   4    1  0.0018    1  0.0018    1  0.0018    1  0.0018    2  0.0018    2  0.0018
    2  0.0018    2  0.0018    3  0.0018    3  0.0018    3  0.0018    3  0.0018
    5  0.8616    5  0.0095    6  0.0095    6  0.8616    7  0.0095    7  0.8616
    8  0.8616    8  0.0095    9  0.8616    9  0.0095   10  0.0095   10  0.8616
   11  0.2299   12  0.2299
   5    1  0.2299    2  0.8616    2  0.0095    3  0.8616    3  0.0095    4  0.8616
    4  0.0095    6  0.0828    7  0.0085    7  0.0085    8  0.1713    8  0.1713
    9  0.0085    9  0.0085   10  0.1713   10  0.1713   11  0.0085   11  0.0085
   12  0.1713   12  0.1713
   6    1  0.2299    2  0.0095    2  0.8616    3  0.0095    3  0.8616    4  0.0095
    4  0.8616    5  0.0828    7  0.1713    7  0.1713    8  0.0085    8  0.0085
    9  0.1713    9  0.1713   10  0.0085   10  0.0085   11  0.1713   11  0.1713
   12  0.0085   12  0.0085
   7    1  0.0095    1  0.8616    2  0.2299    3  0.8616    3  0.0095    4  0.0095
    4  0.8616    5  0.0085    5  0.0085    6  0.1713    6  0.1713    8  0.0828
    9  0.0085    9  0.0085   10  0.1713   10  0.1713   11  0.0085   11  0.0085
   12  0.1713   12  0.1713
   8    1  0.8616    1  0.0095    2  0.2299    3  0.0095    3  0.8616    4  0.8616
    4  0.0095    5  0.1713    5  0.1713    6  0.0085    6  0.0085    7  0.0828
    9  0.1713    9  0.1713   10  0.0085   10  0.0085   11  0.1713   11  0.1713
   12  0.0085   12  0.0085
   9    1  0.0095    1  0.8616    2  0.0095    2  0.8616    3  0.2299    4  0.8616
    4  0.0095    5  0.0085    5  0.0085    6  0.1713    6  0.1713    7  0.0085
    7  0.0085    8  0.1713    8  0.1713   10  0.0828   11  0.0085   11  0.0085
   12  0.1713   12  0.1713
  10    1  0.8616    1  0.0095    2  0.8616    2  0.0095    3  0.2299    4  0.0095
    4  0.8616    5  0.1713    5  0.1713    6  0.0085    6  0.0085    7  0.1713
    7  0.1713    8  0.0085    8  0.0085    9  0.0828   11  0.1713   11  0.1713
   12  0.0085   12  0.0085
  11    1  0.0095    1  0.8616    2  0.8616    2  0.0095    3  0.0095    3  0.8616
    4  0.2299    5  0.0085    5  0.0085    6  0.1713    6  0.1713    7  0.0085
    7  0.0085    8  0.1713    8  0.1713    9  0.0085    9  0.0085   10  0.1713
   10  0.1713   12  0.0828
  12    1  0.8616    1  0.0095    2  0.0095    2  0.8616    3  0.8616    3  0.0095
    4  0.2299    5  0.1713    5  0.1713    6  0.0085    6  0.0085    7  0.1713
    7  0.1713    8  0.0085    8  0.0085    9  0.1713    9  0.1713   10  0.0085
   10  0.0085   11  0.0828

  ReaxFF: Bond Order pi prime: 

   1    2  0.0000    2  0.0000    2  0.0000    2  0.0000    3  0.0000    3  0.0000
    3  0.0000    3  0.0000    4  0.0000    4  0.0000    4  0.0000    4  0.0000
    5  0.0000    6  0.0000    7  0.0000    7  0.0000    8  0.0000    8  0.0000
    9  0.0000    9  0.0000   10  0.0000   10  0.0000   11  0.0000   11  0.0000
   12  0.0000   12  0.0000
   2    1  0.0000    1  0.0000    1  0.0000    1  0.0000    3  0.0000    3  0.0000
    3  0.0000    3  0.0000    4  0.0000    4  0.0000    4  0.0000    4  0.0000
    5  0.0000    5  0.0000    6  0.0000    6  0.0000    7  0.0000    8  0.0000
    9  0.0000    9  0.0000   10  0.0000   10  0.0000   11  0.0000   11  0.0000
   12  0.0000   12  0.0000
   3    1  0.0000    1  0.0000    1  0.0000    1  0.0000    2  0.0000    2  0.0000
    2  0.0000    2  0.0000    4  0.0000    4  0.0000    4  0.0000    4  0.0000
    5  0.0000    5  0.0000    6  0.0000    6  0.0000    7  0.0000    7  0.0000
    8  0.0000    8  0.0000    9  0.0000   10  0.0000   11  0.0000   11  0.0000
   12  0.0000   12  0.0000
   4    1  0.0000    1  0.0000    1  0.0000    1  0.0000    2  0.0000    2  0.0000
    2  0.0000    2  0.0000    3  0.0000    3  0.0000    3  0.0000    3  0.0000
    5  0.0000    5  0.0000    6  0.0000    6  0.0000    7  0.0000    7  0.0000
    8  0.0000    8  0.0000    9  0.0000    9  0.0000   10  0.0000   10  0.0000
   11  0.0000   12  0.0000
   5    1  0.0000    2  0.0000    2  0.0000    3  0.0000    3  0.0000    4  0.0000
    4  0.0000    6  0.0000    7  0.0000    7  0.0000    8  0.0000    8  0.0000
    9  0.0000    9  0.0000   10  0.0000   10  0.0000   11  0.0000   11  0.0000
   12  0.0000   12  0.0000
   6    1  0.0000    2  0.0000    2  0.0000    3  0.0000    3  0.0000    4  0.0000
    4  0.0000    5  0.0000    7  0.0000    7  0.0000    8  0.0000    8  0.0000
    9  0.0000    9  0.0000   10  0.0000   10  0.0000   11  0.0000   11  0.0000
   12  0.0000   12  0.0000
   7    1  0.0000    1  0.0000    2  0.0000    3  0.0000    3  0.0000    4  0.0000
    4  0.0000    5  0.0000    5  0.0000    6  0.0000    6  0.0000    8  0.0000
    9  0.0000    9  0.0000   10  0.0000   10  0.0000   11  0.0000   11  0.0000
   12  0.0000   12  0.0000
   8    1  0.0000    1  0.0000    2  0.0000    3  0.0000    3  0.0000    4  0.0000
    4  0.0000    5  0.0000    5  0.0000    6  0.0000    6  0.0000    7  0.0000
    9  0.0000    9  0.0000   10  0.0000   10  0.0000   11  0.0000   11  0.0000
   12  0.0000   12  0.0000
   9    1  0.0000    1  0.0000    2  0.0000    2  0.0000    3  0.0000    4  0.0000
    4  0.0000    5  0.0000    5  0.0000    6  0.0000    6  0.0000    7  0.0000
    7  0.0000    8  0.0000    8  0.0000   10  0.0000   11  0.0000   11  0.0000
   12  0.0000   12  0.0000
  10    1  0.0000    1  0.0000    2  0.0000    2  0.0000    3  0.0000    4  0.0000
    4  0.0000    5  0.0000    5  0.0000    6  0.0000    6  0.0000    7  0.0000
    7  0.0000    8  0.0000    8  0.0000    9  0.0000   11  0.0000   11  0.0000
   12  0.0000   12  0.0000
  11    1  0.0000    1  0.0000    2  0.0000    2  0.0000    3  0.0000    3  0.0000
    4  0.0000    5  0.0000    5  0.0000    6  0.0000    6  0.0000    7  0.0000
    7  0.0000    8  0.0000    8  0.0000    9  0.0000    9  0.0000   10  0.0000
   10  0.0000   12  0.0000
  12    1  0.0000    1  0.0000    2  0.0000    2  0.0000    3  0.0000    3  0.0000
    4  0.0000    5  0.0000    5  0.0000    6  0.0000    6  0.0000    7  0.0000
    7  0.0000    8  0.0000    8  0.0000    9  0.0000    9  0.0000   10  0.0000
   10  0.0000   11  0.0000

  ReaxFF: Bond Order pi-pi prime: 

   1    2  0.0000    2  0.0000    2  0.0000    2  0.0000    3  0.0000    3  0.0000
    3  0.0000    3  0.0000    4  0.0000    4  0.0000    4  0.0000    4  0.0000
    5  0.0000    6  0.0000    7  0.0000    7  0.0000    8  0.0000    8  0.0000
    9  0.0000    9  0.0000   10  0.0000   10  0.0000   11  0.0000   11  0.0000
   12  0.0000   12  0.0000
   2    1  0.0000    1  0.0000    1  0.0000    1  0.0000    3  0.0000    3  0.0000
    3  0.0000    3  0.0000    4  0.0000    4  0.0000    4  0.0000    4  0.0000
    5  0.0000    5  0.0000    6  0.0000    6  0.0000    7  0.0000    8  0.0000
    9  0.0000    9  0.0000   10  0.0000   10  0.0000   11  0.0000   11  0.0000
   12  0.0000   12  0.0000
   3    1  0.0000    1  0.0000    1  0.0000    1  0.0000    2  0.0000    2  0.0000
    2  0.0000    2  0.0000    4  0.0000    4  0.0000    4  0.0000    4  0.0000
    5  0.0000    5  0.0000    6  0.0000    6  0.0000    7  0.0000    7  0.0000
    8  0.0000    8  0.0000    9  0.0000   10  0.0000   11  0.0000   11  0.0000
   12  0.0000   12  0.0000
   4    1  0.0000    1  0.0000    1  0.0000    1  0.0000    2  0.0000    2  0.0000
    2  0.0000    2  0.0000    3  0.0000    3  0.0000    3  0.0000    3  0.0000
    5  0.0000    5  0.0000    6  0.0000    6  0.0000    7  0.0000    7  0.0000
    8  0.0000    8  0.0000    9  0.0000    9  0.0000   10  0.0000   10  0.0000
   11  0.0000   12  0.0000
   5    1  0.0000    2  0.0000    2  0.0000    3  0.0000    3  0.0000    4  0.0000
    4  0.0000    6  0.0000    7  0.0000    7  0.0000    8  0.0000    8  0.0000
    9  0.0000    9  0.0000   10  0.0000   10  0.0000   11  0.0000   11  0.0000
   12  0.0000   12  0.0000
   6    1  0.0000    2  0.0000    2  0.0000    3  0.0000    3  0.0000    4  0.0000
    4  0.0000    5  0.0000    7  0.0000    7  0.0000    8  0.0000    8  0.0000
    9  0.0000    9  0.0000   10  0.0000   10  0.0000   11  0.0000   11  0.0000
   12  0.0000   12  0.0000
   7    1  0.0000    1  0.0000    2  0.0000    3  0.0000    3  0.0000    4  0.0000
    4  0.0000    5  0.0000    5  0.0000    6  0.0000    6  0.0000    8  0.0000
    9  0.0000    9  0.0000   10  0.0000   10  0.0000   11  0.0000   11  0.0000
   12  0.0000   12  0.0000
   8    1  0.0000    1  0.0000    2  0.0000    3  0.0000    3  0.0000    4  0.0000
    4  0.0000    5  0.0000    5  0.0000    6  0.0000    6  0.0000    7  0.0000
    9  0.0000    9  0.0000   10  0.0000   10  0.0000   11  0.0000   11  0.0000
   12  0.0000   12  0.0000
   9    1  0.0000    1  0.0000    2  0.0000    2  0.0000    3  0.0000    4  0.0000
    4  0.0000    5  0.0000    5  0.0000    6  0.0000    6  0.0000    7  0.0000
    7  0.0000    8  0.0000    8  0.0000   10  0.0000   11  0.0000   11  0.0000
   12  0.0000   12  0.0000
  10    1  0.0000    1  0.0000    2  0.0000    2  0.0000    3  0.0000    4  0.0000
    4  0.0000    5  0.0000    5  0.0000    6  0.0000    6  0.0000    7  0.0000
    7  0.0000    8  0.0000    8  0.0000    9  0.0000   11  0.0000   11  0.0000
   12  0.0000   12  0.0000
  11    1  0.0000    1  0.0000    2  0.0000    2  0.0000    3  0.0000    3  0.0000
    4  0.0000    5  0.0000    5  0.0000    6  0.0000    6  0.0000    7  0.0000
    7  0.0000    8  0.0000    8  0.0000    9  0.0000    9  0.0000   10  0.0000
   10  0.0000   12  0.0000
  12    1  0.0000    1  0.0000    2  0.0000    2  0.0000    3  0.0000    3  0.0000
    4  0.0000    5  0.0000    5  0.0000    6  0.0000    6  0.0000    7  0.0000
    7  0.0000    8  0.0000    8  0.0000    9  0.0000    9  0.0000   10  0.0000
   10  0.0000   11  0.0000



  ReaxFF: Delta and Bond Order: 

   1  2.708100    2  0.0018    2  0.0018    2  0.0018    2  0.0018    3  0.0018    3  0.0018
    3  0.0018    3  0.0018    4  0.0018    4  0.0018    4  0.0018    4  0.0018
    5  0.2299    6  0.2299    7  0.0095    7  0.8616    8  0.8616    8  0.0095
    9  0.0095    9  0.8616   10  0.8616   10  0.0095   11  0.0095   11  0.8616
   12  0.8616   12  0.0095
   2  2.708100    1  0.0018    1  0.0018    1  0.0018    1  0.0018    3  0.0018    3  0.0018
    3  0.0018    3  0.0018    4  0.0018    4  0.0018    4  0.0018    4  0.0018
    5  0.8616    5  0.0095    6  0.0095    6  0.8616    7  0.2299    8  0.2299
    9  0.0095    9  0.8616   10  0.8616   10  0.0095   11  0.8616   11  0.0095
   12  0.0095   12  0.8616
   3  2.708100    1  0.0018    1  0.0018    1  0.0018    1  0.0018    2  0.0018    2  0.0018
    2  0.0018    2  0.0018    4  0.0018    4  0.0018    4  0.0018    4  0.0018
    5  0.8616    5  0.0095    6  0.0095    6  0.8616    7  0.8616    7  0.0095
    8  0.0095    8  0.8616    9  0.2299   10  0.2299   11  0.0095   11  0.8616
   12  0.8616   12  0.0095
   4  2.708100    1  0.0018    1  0.0018    1  0.0018    1  0.0018    2  0.0018    2  0.0018
    2  0.0018    2  0.0018    3  0.0018    3  0.0018    3  0.0018    3  0.0018
    5  0.8616    5  0.0095    6  0.0095    6  0.8616    7  0.0095    7  0.8616
    8  0.8616    8  0.0095    9  0.8616    9  0.0095   10  0.0095   10  0.8616
   11  0.2299   12  0.2299
   5  1.423176    1  0.2299    2  0.8616    2  0.0095    3  0.8616    3  0.0095    4  0.8616
    4  0.0095    6  0.0414    7  0.0042    7  0.0042    8  0.0855    8  0.0855
    9  0.0042    9  0.0042   10  0.0855   10  0.0855   11  0.0042   11  0.0042
   12  0.0855   12  0.0855
   6  1.423176    1  0.2299    2  0.0095    2  0.8616    3  0.0095    3  0.8616    4  0.0095
    4  0.8616    5  0.0414    7  0.0855    7  0.0855    8  0.0042    8  0.0042
    9  0.0855    9  0.0855   10  0.0042   10  0.0042   11  0.0855   11  0.0855
   12  0.0042   12  0.0042
   7  1.423176    1  0.0095    1  0.8616    2  0.2299    3  0.8616    3  0.0095    4  0.0095
    4  0.8616    5  0.0042    5  0.0042    6  0.0855    6  0.0855    8  0.0414
    9  0.0042    9  0.0042   10  0.0855   10  0.0855   11  0.0042   11  0.0042
   12  0.0855   12  0.0855
   8  1.423176    1  0.8616    1  0.0095    2  0.2299    3  0.0095    3  0.8616    4  0.8616
    4  0.0095    5  0.0855    5  0.0855    6  0.0042    6  0.0042    7  0.0414
    9  0.0855    9  0.0855   10  0.0042   10  0.0042   11  0.0855   11  0.0855
   12  0.0042   12  0.0042
   9  1.423176    1  0.0095    1  0.8616    2  0.0095    2  0.8616    3  0.2299    4  0.8616
    4  0.0095    5  0.0042    5  0.0042    6  0.0855    6  0.0855    7  0.0042
    7  0.0042    8  0.0855    8  0.0855   10  0.0414   11  0.0042   11  0.0042
   12  0.0855   12  0.0855
  10  1.423176    1  0.8616    1  0.0095    2  0.8616    2  0.0095    3  0.2299    4  0.0095
    4  0.8616    5  0.0855    5  0.0855    6  0.0042    6  0.0042    7  0.0855
    7  0.0855    8  0.0042    8  0.0042    9  0.0414   11  0.0855   11  0.0855
   12  0.0042   12  0.0042
  11  1.423176    1  0.0095    1  0.8616    2  0.8616    2  0.0095    3  0.0095    3  0.8616
    4  0.2299    5  0.0042    5  0.0042    6  0.0855    6  0.0855    7  0.0042
    7  0.0042    8  0.0855    8  0.0855    9  0.0042    9  0.0042   10  0.0855
   10  0.0855   12  0.0414
  12  1.423176    1  0.8616    1  0.0095    2  0.0095    2  0.8616    3  0.8616    3  0.0095
    4  0.2299    5  0.0855    5  0.0855    6  0.0042    6  0.0042    7  0.0855
    7  0.0855    8  0.0042    8  0.0042    9  0.0855    9  0.0855   10  0.0042
   10  0.0042   11  0.0414

  ReaxFF: Delta lone pair: 

   1  1.000000
   2  1.000000
   3  1.000000
   4  1.000000
   5  0.999996
   6  0.999996
   7  0.999996
   8  0.999996
   9  0.999996
  10  0.999996
  11  0.999996
  12  0.999996


  ReaxFF : Energy contributions: 

  E(bond)     =     -77.38114470 eV =    -1784.4401492 kcal
  E(bpen)     =       0.00000000 eV =        0.0000000 kcal
  E(lonepair) =       1.21399060 eV =       27.9951089 kcal
  E(over)     =      12.47702353 eV =      287.7251533 kcal
  E(under)    =       0.00000000 eV =        0.0000000 kcal
  E(val)      =      16.37508515 eV =      377.6160135 kcal
  E(pen)      =       0.00000000 eV =        0.0000000 kcal
  E(coa)      =       0.00000000 eV =        0.0000000 kcal
  E(tors)     =       2.17414192 eV =       50.1365823 kcal
  E(conj)     =       0.00000000 eV =        0.0000000 kcal
  E(hb)       =       0.00000000 eV =        0.0000000 kcal
  E(vdw)      =       6.10993684 eV =      140.8975875 kcal
  E(coulomb)  =      -3.32526941 eV =      -76.6820428 kcal
  E(self)     =      -0.11858162 eV =       -2.7345396 kcal

  ReaxFF: Delta and Bond Order prime: 

   1  2.653011    2  0.0014    2  0.0014    2  0.0014    2  0.0014    3  0.0014    3  0.0014
    3  0.0014    3  0.0014    4  0.0014    4  0.0014    4  0.0014    4  0.0014
    5  0.2195    6  0.2195    7  0.0083    7  0.8579    8  0.8579    8  0.0083
    9  0.0083    9  0.8579   10  0.8579   10  0.0083   11  0.0083   11  0.8579
   12  0.8579   12  0.0083
   2  2.653011    1  0.0014    1  0.0014    1  0.0014    1  0.0014    3  0.0014    3  0.0014
    3  0.0014    3  0.0014    4  0.0014    4  0.0014    4  0.0014    4  0.0014
    5  0.8579    5  0.0083    6  0.0083    6  0.8579    7  0.2195    8  0.2195
    9  0.0083    9  0.8579   10  0.8579   10  0.0083   11  0.8579   11  0.0083
   12  0.0083   12  0.8579
   3  2.653011    1  0.0014    1  0.0014    1  0.0014    1  0.0014    2  0.0014    2  0.0014
    2  0.0014    2  0.0014    4  0.0014    4  0.0014    4  0.0014    4  0.0014
    5  0.8579    5  0.0083    6  0.0083    6  0.8579    7  0.8579    7  0.0083
    8  0.0083    8  0.8579    9  0.2195   10  0.2195   11  0.0083   11  0.8579
   12  0.8579   12  0.0083
   4  2.653011    1  0.0014    1  0.0014    1  0.0014    1  0.0014    2  0.0014    2  0.0014
    2  0.0014    2  0.0014    3  0.0014    3  0.0014    3  0.0014    3  0.0014
    5  0.8579    5  0.0083    6  0.0083    6  0.8579    7  0.0083    7  0.8579
    8  0.8579    8  0.0083    9  0.8579    9  0.0083   10  0.0083   10  0.8579
   11  0.2195   12  0.2195
   5  1.918228    1  0.2195    2  0.8579    2  0.0083    3  0.8579    3  0.0083    4  0.8579
    4  0.0083    6  0.0785    7  0.0074    7  0.0074    8  0.1628    8  0.1628
    9  0.0074    9  0.0074   10  0.1628   10  0.1628   11  0.0074   11  0.0074
   12  0.1628   12  0.1628
   6  1.918228    1  0.2195    2  0.0083    2  0.8579    3  0.0083    3  0.8579    4  0.0083
    4  0.8579    5  0.0785    7  0.1628    7  0.1628    8  0.0074    8  0.0074
    9  0.1628    9  0.1628   10  0.0074   10  0.0074   11  0.1628   11  0.1628
   12  0.0074   12  0.0074
   7  1.918228    1  0.0083    1  0.8579    2  0.2195    3  0.8579    3  0.0083    4  0.0083
    4  0.8579    5  0.0074    5  0.0074    6  0.1628    6  0.1628    8  0.0785
    9  0.0074    9  0.0074   10  0.1628   10  0.1628   11  0.0074   11  0.0074
   12  0.1628   12  0.1628
   8  1.918228    1  0.8579    1  0.0083    2  0.2195    3  0.0083    3  0.8579    4  0.8579
    4  0.0083    5  0.1628    5  0.1628    6  0.0074    6  0.0074    7  0.0785
    9  0.1628    9  0.1628   10  0.0074   10  0.0074   11  0.1628   11  0.1628
   12  0.0074   12  0.0074
   9  1.918228    1  0.0083    1  0.8579    2  0.0083    2  0.8579    3  0.2195    4  0.8579
    4  0.0083    5  0.0074    5  0.0074    6  0.1628    6  0.1628    7  0.0074
    7  0.0074    8  0.1628    8  0.1628   10  0.0785   11  0.0074   11  0.0074
   12  0.1628   12  0.1628
  10  1.918228    1  0.8579    1  0.0083    2  0.8579    2  0.0083    3  0.2195    4  0.0083
    4  0.8579    5  0.1628    5  0.1628    6  0.0074    6  0.0074    7  0.1628
    7  0.1628    8  0.0074    8  0.0074    9  0.0785   11  0.1628   11  0.1628
   12  0.0074   12  0.0074
  11  1.918228    1  0.0083    1  0.8579    2  0.8579    2  0.0083    3  0.0083    3  0.8579
    4  0.2195    5  0.0074    5  0.0074    6  0.1628    6  0.1628    7  0.0074
    7  0.0074    8  0.1628    8  0.1628    9  0.0074    9  0.0074   10  0.1628
   10  0.1628   12  0.0785
  12  1.918228    1  0.8579    1  0.0083    2  0.0083    2  0.8579    3  0.8579    3  0.0083
    4  0.2195    5  0.1628    5  0.1628    6  0.0074    6  0.0074    7  0.1628
    7  0.1628    8  0.0074    8  0.0074    9  0.1628    9  0.1628   10  0.0074
   10  0.0074   11  0.0785

  ReaxFF: Bond Order sigma prime: 

   1    2  0.0014    2  0.0014    2  0.0014    2  0.0014    3  0.0014    3  0.0014
    3  0.0014    3  0.0014    4  0.0014    4  0.0014    4  0.0014    4  0.0014
    5  0.2195    6  0.2195    7  0.0083    7  0.8579    8  0.8579    8  0.0083
    9  0.0083    9  0.8579   10  0.8579   10  0.0083   11  0.0083   11  0.8579
   12  0.8579   12  0.0083
   2    1  0.0014    1  0.0014    1  0.0014    1  0.0014    3  0.0014    3  0.0014
    3  0.0014    3  0.0014    4  0.0014    4  0.0014    4  0.0014    4  0.0014
    5  0.8579    5  0.0083    6  0.0083    6  0.8579    7  0.2195    8  0.2195
    9  0.0083    9  0.8579   10  0.8579   10  0.0083   11  0.8579   11  0.0083
   12  0.0083   12  0.8579
   3    1  0.0014    1  0.0014    1  0.0014    1  0.0014    2  0.0014    2  0.0014
    2  0.0014    2  0.0014    4  0.0014    4  0.0014    4  0.0014    4  0.0014
    5  0.8579    5  0.0083    6  0.0083    6  0.8579    7  0.8579    7  0.0083
    8  0.0083    8  0.8579    9  0.2195   10  0.2195   11  0.0083   11  0.8579
   12  0.8579   12  0.0083
   4    1  0.0014    1  0.0014    1  0.0014    1  0.0014    2  0.0014    2  0.0014
    2  0.0014    2  0.0014    3  0.0014    3  0.0014    3  0.0014    3  0.0014
    5  0.8579    5  0.0083    6  0.0083    6  0.8579    7  0.0083    7  0.8579
    8  0.8579    8  0.0083    9  0.8579    9  0.0083   10  0.0083   10  0.8579
   11  0.2195   12  0.2195
   5    1  0.2195    2  0.8579    2  0.0083    3  0.8579    3  0.0083    4  0.8579
    4  0.0083    6  0.0785    7  0.0074    7  0.0074    8  0.1628    8  0.1628
    9  0.0074    9  0.0074   10  0.1628   10  0.1628   11  0.0074   11  0.0074
   12  0.1628   12  0.1628
   6    1  0.2195    2  0.0083    2  0.8579    3  0.0083    3  0.8579    4  0.0083
    4  0.8579    5  0.0785    7  0.1628    7  0.1628    8  0.0074    8  0.0074
    9  0.1628    9  0.1628   10  0.0074   10  0.0074   11  0.1628   11  0.1628
   12  0.0074   12  0.0074
   7    1  0.0083    1  0.8579    2  0.2195    3  0.8579    3  0.0083    4  0.0083
    4  0.8579    5  0.0074    5  0.0074    6  0.1628    6  0.1628    8  0.0785
    9  0.0074    9  0.0074   10  0.1628   10  0.1628   11  0.0074   11  0.0074
   12  0.1628   12  0.1628
   8    1  0.8579    1  0.0083    2  0.2195    3  0.0083    3  0.8579    4  0.8579
    4  0.0083    5  0.1628    5  0.1628    6  0.0074    6  0.0074    7  0.0785
    9  0.1628    9  0.1628   10  0.0074   10  0.0074   11  0.1628   11  0.1628
   12  0.0074   12  0.0074
   9    1  0.0083    1  0.8579    2  0.0083    2  0.8579    3  0.2195    4  0.8579
    4  0.0083    5  0.0074    5  0.0074    6  0.1628    6  0.1628    7  0.0074
    7  0.0074    8  0.1628    8  0.1628   10  0.0785   11  0.0074   11  0.0074
   12  0.1628   12  0.1628
  10    1  0.8579    1  0.0083    2  0.8579    2  0.0083    3  0.2195    4  0.0083
    4  0.8579    5  0.1628    5  0.1628    6  0.0074    6  0.0074    7  0.1628
    7  0.1628    8  0.0074    8  0.0074    9  0.0785   11  0.1628   11  0.1628
   12  0.0074   12  0.0074
  11    1  0.0083    1  0.8579    2  0.8579    2  0.0083    3  0.0083    3  0.8579
    4  0.2195    5  0.0074    5  0.0074    6  0.1628    6  0.1628    7  0.0074
    7  0.0074    8  0.1628    8  0.1628    9  0.0074    9  0.0074   10  0.1628
   10  0.1628   12  0.0785
  12    1  0.8579    1  0.0083    2  0.0083    2  0.8579    3  0.8579    3  0.0083
    4  0.2195    5  0.1628    5  0.1628    6  0.0074    6  0.0074    7  0.1628
    7  0.1628    8  0.0074    8  0.0074    9  0.1628    9  0.1628   10  0.0074
   10  0.0074   11  0.0785

  ReaxFF: Bond Order pi prime: 

   1    2  0.0000    2  0.0000    2  0.0000    2  0.0000    3  0.0000    3  0.0000
    3  0.0000    3  0.0000    4  0.0000    4  0.0000    4  0.0000    4  0.0000
    5  0.0000    6  0.0000    7  0.0000    7  0.0000    8  0.0000    8  0.0000
    9  0.0000    9  0.0000   10  0.0000   10  0.0000   11  0.0000   11  0.0000
   12  0.0000   12  0.0000
   2    1  0.0000    1  0.0000    1  0.0000    1  0.0000    3  0.0000    3  0.0000
    3  0.0000    3  0.0000    4  0.0000    4  0.0000    4  0.0000    4  0.0000
    5  0.0000    5  0.0000    6  0.0000    6  0.0000    7  0.0000    8  0.0000
    9  0.0000    9  0.0000   10  0.0000   10  0.0000   11  0.0000   11  0.0000
   12  0.0000   12  0.0000
   3    1  0.0000    1  0.0000    1  0.0000    1  0.0000    2  0.0000    2  0.0000
    2  0.0000    2  0.0000    4  0.0000    4  0.0000    4  0.0000    4  0.0000
    5  0.0000    5  0.0000    6  0.0000    6  0.0000    7  0.0000    7  0.0000
    8  0.0000    8  0.0000    9  0.0000   10  0.0000   11  0.0000   11  0.0000
   12  0.0000   12  0.0000
   4    1  0.0000    1  0.0000    1  0.0000    1  0.0000    2  0.0000    2  0.0000
    2  0.0000    2  0.0000    3  0.0000    3  0.0000    3  0.0000    3  0.0000
    5  0.0000    5  0.0000    6  0.0000    6  0.0000    7  0.0000    7  0.0000
    8  0.0000    8  0.0000    9  0.0000    9  0.0000   10  0.0000   10  0.0000
   11  0.0000   12  0.0000
   5    1  0.0000    2  0.0000    2  0.0000    3  0.0000    3  0.0000    4  0.0000
    4  0.0000    6  0.0000    7  0.0000    7  0.0000    8  0.0000    8  0.0000
    9  0.0000    9  0.0000   10  0.0000   10  0.0000   11  0.0000   11  0.0000
   12  0.0000   12  0.0000
   6    1  0.0000    2  0.0000    2  0.0000    3  0.0000    3  0.0000    4  0.0000
    4  0.0000    5  0.0000    7  0.0000    7  0.0000    8  0.0000    8  0.0000
    9  0.0000    9  0.0000   10  0.0000   10  0.0000   11  0.0000   11  0.0000
   12  0.0000   12  0.0000
   7    1  0.0000    1  0.0000    2  0.0000    3  0.0000    3  0.0000    4  0.0000
    4  0.0000    5  0.0000    5  0.0000    6  0.0000    6  0.0000    8  0.0000
    9  0.0000    9  0.0000   10  0.0000   10  0.0000   11  0.0000   11  0.0000
   12  0.0000   12  0.0000
   8    1  0.0000    1  0.0000    2  0.0000    3  0.0000    3  0.0000    4  0.0000
    4  0.0000    5  0.0000    5  0.0000    6  0.0000    6  0.0000    7  0.0000
    9  0.0000    9  0.0000   10  0.0000   10  0.0000   11  0.0000   11  0.0000
   12  0.0000   12  0.0000
   9    1  0.0000    1  0.0000    2  0.0000    2  0.0000    3  0.0000    4  0.0000
    4  0.0000    5  0.0000    5  0.0000    6  0.0000    6  0.0000    7  0.0000
    7  0.0000    8  0.0000    8  0.0000   10  0.0000   11  0.0000   11  0.0000
   12  0.0000   12  0.0000
  10    1  0.0000    1  0.0000    2  0.0000    2  0.0000    3  0.0000    4  0.0000
    4  0.0000    5  0.0000    5  0.0000    6  0.0000    6  0.0000    7  0.0000
    7  0.0000    8  0.0000    8  0.0000    9  0.0000   11  0.0000   11  0.0000
   12  0.0000   12  0.0000
  11    1  0.0000    1  0.0000    2  0.0000    2  0.0000    3  0.0000    3  0.0000
    4  0.0000    5  0.0000    5  0.0000    6  0.0000    6  0.0000    7  0.0000
    7  0.0000    8  0.0000    8  0.0000    9  0.0000    9  0.0000   10  0.0000
   10  0.0000   12  0.0000
  12    1  0.0000    1  0.0000    2  0.0000    2  0.0000    3  0.0000    3  0.0000
    4  0.0000    5  0.0000    5  0.0000    6  0.0000    6  0.0000    7  0.0000
    7  0.0000    8  0.0000    8  0.0000    9  0.0000    9  0.0000   10  0.0000
   10  0.0000   11  0.0000

  ReaxFF: Bond Order pi-pi prime: 

   1    2  0.0000    2  0.0000    2  0.0000    2  0.0000    3  0.0000    3  0.0000
    3  0.0000    3  0.0000    4  0.0000    4  0.0000    4  0.0000    4  0.0000
    5  0.0000    6  0.0000    7  0.0000    7  0.0000    8  0.0000    8  0.0000
    9  0.0000    9  0.0000   10  0.0000   10  0.0000   11  0.0000   11  0.0000
   12  0.0000   12  0.0000
   2    1  0.0000    1  0.0000    1  0.0000    1  0.0000    3  0.0000    3  0.0000
    3  0.0000    3  0.0000    4  0.0000    4  0.0000    4  0.0000    4  0.0000
    5  0.0000    5  0.0000    6  0.0000    6  0.0000    7  0.0000    8  0.0000
    9  0.0000    9  0.0000   10  0.0000   10  0.0000   11  0.0000   11  0.0000
   12  0.0000   12  0.0000
   3    1  0.0000    1  0.0000    1  0.0000    1  0.0000    2  0.0000    2  0.0000
    2  0.0000    2  0.0000    4  0.0000    4  0.0000    4  0.0000    4  0.0000
    5  0.0000    5  0.0000    6  0.0000    6  0.0000    7  0.0000    7  0.0000
    8  0.0000    8  0.0000    9  0.0000   10  0.0000   11  0.0000   11  0.0000
   12  0.0000   12  0.0000
   4    1  0.0000    1  0.0000    1  0.0000    1  0.0000    2  0.0000    2  0.0000
    2  0.0000    2  0.0000    3  0.0000    3  0.0000    3  0.0000    3  0.0000
    5  0.0000    5  0.0000    6  0.0000    6  0.0000    7  0.0000    7  0.0000
    8  0.0000    8  0.0000    9  0.0000    9  0.0000   10  0.0000   10  0.0000
   11  0.0000   12  0.0000
   5    1  0.0000    2  0.0000    2  0.0000    3  0.0000    3  0.0000    4  0.0000
    4  0.0000    6  0.0000    7  0.0000    7  0.0000    8  0.0000    8  0.0000
    9  0.0000    9  0.0000   10  0.0000   10  0.0000   11  0.0000   11  0.0000
   12  0.0000   12  0.0000
   6    1  0.0000    2  0.0000    2  0.0000    3  0.0000    3  0.0000    4  0.0000
    4  0.0000    5  0.0000    7  0.0000    7  0.0000    8  0.0000    8  0.0000
    9  0.0000    9  0.0000   10  0.0000   10  0.0000   11  0.0000   11  0.0000
   12  0.0000   12  0.0000
   7    1  0.0000    1  0.0000    2  0.0000    3  0.0000    3  0.0000    4  0.0000
    4  0.0000    5  0.0000    5  0.0000    6  0.0000    6  0.0000    8  0.0000
    9  0.0000    9  0.0000   10  0.0000   10  0.0000   11  0.0000   11  0.0000
   12  0.0000   12  0.0000
   8    1  0.0000    1  0.0000    2  0.0000    3  0.0000    3  0.0000    4  0.0000
    4  0.0000    5  0.0000    5  0.0000    6  0.0000    6  0.0000    7  0.0000
    9  0.0000    9  0.0000   10  0.0000   10  0.0000   11  0.0000   11  0.0000
   12  0.0000   12  0.0000
   9    1  0.0000    1  0.0000    2  0.0000    2  0.0000    3  0.0000    4  0.0000
    4  0.0000    5  0.0000    5  0.0000    6  0.0000    6  0.0000    7  0.0000
    7  0.0000    8  0.0000    8  0.0000   10  0.0000   11  0.0000   11  0.0000
   12  0.0000   12  0.0000
  10    1  0.0000    1  0.0000    2  0.0000    2  0.0000    3  0.0000    4  0.0000
    4  0.0000    5  0.0000    5  0.0000    6  0.0000    6  0.0000    7  0.0000
    7  0.0000    8  0.0000    8  0.0000    9  0.0000   11  0.0000   11  0.0000
   12  0.0000   12  0.0000
  11    1  0.0000    1  0.0000    2  0.0000    2  0.0000    3  0.0000    3  0.0000
    4  0.0000    5  0.0000    5  0.0000    6  0.0000    6  0.0000    7  0.0000
    7  0.0000    8  0.0000    8  0.0000    9  0.0000    9  0.0000   10  0.0000
   10  0.0000   12  0.0000
  12    1  0.0000    1  0.0000    2  0.0000    2  0.0000    3  0.0000    3  0.0000
    4  0.0000    5  0.0000    5  0.0000    6  0.0000    6  0.0000    7  0.0000
    7  0.0000    8  0.0000    8  0.0000    9  0.0000    9  0.0000   10  0.0000
   10  0.0000   11  0.0000



  ReaxFF: Delta and Bond Order: 

   1  2.653011    2  0.0014    2  0.0014    2  0.0014    2  0.0014    3  0.0014    3  0.0014
    3  0.0014    3  0.0014    4  0.0014    4  0.0014    4  0.0014    4  0.0014
    5  0.2195    6  0.2195    7  0.0083    7  0.8579    8  0.8579    8  0.0083
    9  0.0083    9  0.8579   10  0.8579   10  0.0083   11  0.0083   11  0.8579
   12  0.8579   12  0.0083
   2  2.653011    1  0.0014    1  0.0014    1  0.0014    1  0.0014    3  0.0014    3  0.0014
    3  0.0014    3  0.0014    4  0.0014    4  0.0014    4  0.0014    4  0.0014
    5  0.8579    5  0.0083    6  0.0083    6  0.8579    7  0.2195    8  0.2195
    9  0.0083    9  0.8579   10  0.8579   10  0.0083   11  0.8579   11  0.0083
   12  0.0083   12  0.8579
   3  2.653011    1  0.0014    1  0.0014    1  0.0014    1  0.0014    2  0.0014    2  0.0014
    2  0.0014    2  0.0014    4  0.0014    4  0.0014    4  0.0014    4  0.0014
[...]
    8  0.0000   10  0.0000   10  0.0000   12  0.0000   12  0.0000
   8    1  0.0000    2  0.0000    3  0.0000    4  0.0000    5  0.0000    5  0.0000
    7  0.0000    9  0.0000    9  0.0000   11  0.0000   11  0.0000
   9    1  0.0000    2  0.0000    3  0.0000    4  0.0000    6  0.0000    6  0.0000
    8  0.0000    8  0.0000   10  0.0000   12  0.0000   12  0.0000
  10    1  0.0000    2  0.0000    3  0.0000    4  0.0000    5  0.0000    5  0.0000
    7  0.0000    7  0.0000    9  0.0000   11  0.0000   11  0.0000
  11    1  0.0000    2  0.0000    3  0.0000    4  0.0000    6  0.0000    6  0.0000
    8  0.0000    8  0.0000   10  0.0000   10  0.0000   12  0.0000
  12    1  0.0000    2  0.0000    3  0.0000    4  0.0000    5  0.0000    5  0.0000
    7  0.0000    7  0.0000    9  0.0000    9  0.0000   11  0.0000



  ReaxFF: Delta and Bond Order: 

   1  2.289771    5  0.2181    6  0.2181    7  0.8089    8  0.8089    9  0.8089   10  0.8089
   11  0.8089   12  0.8089
   2  2.289771    5  0.8089    6  0.8089    7  0.2181    8  0.2181    9  0.8089   10  0.8089
   11  0.8089   12  0.8089
   3  2.289771    5  0.8089    6  0.8089    7  0.8089    8  0.8089    9  0.2181   10  0.2181
   11  0.8089   12  0.8089
   4  2.289771    5  0.8089    6  0.8089    7  0.8089    8  0.8089    9  0.8089   10  0.8089
   11  0.2181   12  0.2181
   5  1.046789    1  0.2181    2  0.8089    3  0.8089    4  0.8089    6  0.0006    8  0.0669
    8  0.0669   10  0.0669   10  0.0669   12  0.0669   12  0.0669
   6  1.046789    1  0.2181    2  0.8089    3  0.8089    4  0.8089    5  0.0006    7  0.0669
    7  0.0669    9  0.0669    9  0.0669   11  0.0669   11  0.0669
   7  1.046789    1  0.8089    2  0.2181    3  0.8089    4  0.8089    6  0.0669    6  0.0669
    8  0.0006   10  0.0669   10  0.0669   12  0.0669   12  0.0669
   8  1.046789    1  0.8089    2  0.2181    3  0.8089    4  0.8089    5  0.0669    5  0.0669
    7  0.0006    9  0.0669    9  0.0669   11  0.0669   11  0.0669
   9  1.046789    1  0.8089    2  0.8089    3  0.2181    4  0.8089    6  0.0669    6  0.0669
    8  0.0669    8  0.0669   10  0.0006   12  0.0669   12  0.0669
  10  1.046789    1  0.8089    2  0.8089    3  0.2181    4  0.8089    5  0.0669    5  0.0669
    7  0.0669    7  0.0669    9  0.0006   11  0.0669   11  0.0669
  11  1.046789    1  0.8089    2  0.8089    3  0.8089    4  0.2181    6  0.0669    6  0.0669
    8  0.0669    8  0.0669   10  0.0669   10  0.0669   12  0.0006
  12  1.046789    1  0.8089    2  0.8089    3  0.8089    4  0.2181    5  0.0669    5  0.0669
    7  0.0669    7  0.0669    9  0.0669    9  0.0669   11  0.0006

  ReaxFF: Delta lone pair: 

   1  1.000000
   2  1.000000
   3  1.000000
   4  1.000000
   5  0.998734
   6  0.998734
   7  0.998734
   8  0.998734
   9  0.998734
  10  0.998734
  11  0.998734
  12  0.998734


  ReaxFF : Energy contributions: 

  E(bond)     =     -70.24248892 eV =    -1619.8198916 kcal
  E(bpen)     =       0.00000000 eV =        0.0000000 kcal
  E(lonepair) =       1.21245957 eV =       27.9598026 kcal
  E(over)     =       9.93440993 eV =      229.0914668 kcal
  E(under)    =       0.00000011 eV =        0.0000026 kcal
  E(val)      =      14.85957330 eV =      342.6677041 kcal
  E(pen)      =       0.00000000 eV =        0.0000000 kcal
  E(coa)      =       0.00000000 eV =        0.0000000 kcal
  E(tors)     =       0.79779098 eV =       18.3973792 kcal
  E(conj)     =       0.00000000 eV =        0.0000000 kcal
  E(hb)       =       0.00000000 eV =        0.0000000 kcal
  E(vdw)      =       3.23506097 eV =       74.6018000 kcal
  E(coulomb)  =      -3.09559776 eV =      -71.3857226 kcal
  E(self)     =      -0.26866394 eV =       -6.1954978 kcal

  ReaxFF: Delta and Bond Order prime: 

   1  2.289771    5  0.2181    6  0.2181    7  0.8089    8  0.8089    9  0.8089   10  0.8089
   11  0.8089   12  0.8089
   2  2.289771    5  0.8089    6  0.8089    7  0.2181    8  0.2181    9  0.8089   10  0.8089
   11  0.8089   12  0.8089
   3  2.289771    5  0.8089    6  0.8089    7  0.8089    8  0.8089    9  0.2181   10  0.2181
   11  0.8089   12  0.8089
   4  2.289771    5  0.8089    6  0.8089    7  0.8089    8  0.8089    9  0.8089   10  0.8089
   11  0.2181   12  0.2181
   5  1.310046    1  0.2181    2  0.8089    3  0.8089    4  0.8089    6  0.0010    8  0.1107
    8  0.1107   10  0.1107   10  0.1107   12  0.1107   12  0.1107
   6  1.310046    1  0.2181    2  0.8089    3  0.8089    4  0.8089    5  0.0010    7  0.1107
    7  0.1107    9  0.1107    9  0.1107   11  0.1107   11  0.1107
   7  1.310046    1  0.8089    2  0.2181    3  0.8089    4  0.8089    6  0.1107    6  0.1107
    8  0.0010   10  0.1107   10  0.1107   12  0.1107   12  0.1107
   8  1.310046    1  0.8089    2  0.2181    3  0.8089    4  0.8089    5  0.1107    5  0.1107
    7  0.0010    9  0.1107    9  0.1107   11  0.1107   11  0.1107
   9  1.310046    1  0.8089    2  0.8089    3  0.2181    4  0.8089    6  0.1107    6  0.1107
    8  0.1107    8  0.1107   10  0.0010   12  0.1107   12  0.1107
  10  1.310046    1  0.8089    2  0.8089    3  0.2181    4  0.8089    5  0.1107    5  0.1107
    7  0.1107    7  0.1107    9  0.0010   11  0.1107   11  0.1107
  11  1.310046    1  0.8089    2  0.8089    3  0.8089    4  0.2181    6  0.1107    6  0.1107
    8  0.1107    8  0.1107   10  0.1107   10  0.1107   12  0.0010
  12  1.310046    1  0.8089    2  0.8089    3  0.8089    4  0.2181    5  0.1107    5  0.1107
    7  0.1107    7  0.1107    9  0.1107    9  0.1107   11  0.0010

  ReaxFF: Bond Order sigma prime: 

   1    5  0.2181    6  0.2181    7  0.8089    8  0.8089    9  0.8089   10  0.8089
   11  0.8089   12  0.8089
   2    5  0.8089    6  0.8089    7  0.2181    8  0.2181    9  0.8089   10  0.8089
   11  0.8089   12  0.8089
   3    5  0.8089    6  0.8089    7  0.8089    8  0.8089    9  0.2181   10  0.2181
   11  0.8089   12  0.8089
   4    5  0.8089    6  0.8089    7  0.8089    8  0.8089    9  0.8089   10  0.8089
   11  0.2181   12  0.2181
   5    1  0.2181    2  0.8089    3  0.8089    4  0.8089    6  0.0010    8  0.1107
    8  0.1107   10  0.1107   10  0.1107   12  0.1107   12  0.1107
   6    1  0.2181    2  0.8089    3  0.8089    4  0.8089    5  0.0010    7  0.1107
    7  0.1107    9  0.1107    9  0.1107   11  0.1107   11  0.1107
   7    1  0.8089    2  0.2181    3  0.8089    4  0.8089    6  0.1107    6  0.1107
    8  0.0010   10  0.1107   10  0.1107   12  0.1107   12  0.1107
   8    1  0.8089    2  0.2181    3  0.8089    4  0.8089    5  0.1107    5  0.1107
    7  0.0010    9  0.1107    9  0.1107   11  0.1107   11  0.1107
   9    1  0.8089    2  0.8089    3  0.2181    4  0.8089    6  0.1107    6  0.1107
    8  0.1107    8  0.1107   10  0.0010   12  0.1107   12  0.1107
  10    1  0.8089    2  0.8089    3  0.2181    4  0.8089    5  0.1107    5  0.1107
    7  0.1107    7  0.1107    9  0.0010   11  0.1107   11  0.1107
  11    1  0.8089    2  0.8089    3  0.8089    4  0.2181    6  0.1107    6  0.1107
    8  0.1107    8  0.1107   10  0.1107   10  0.1107   12  0.0010
  12    1  0.8089    2  0.8089    3  0.8089    4  0.2181    5  0.1107    5  0.1107
    7  0.1107    7  0.1107    9  0.1107    9  0.1107   11  0.0010

  ReaxFF: Bond Order pi prime: 

   1    5  0.0000    6  0.0000    7  0.0000    8  0.0000    9  0.0000   10  0.0000
   11  0.0000   12  0.0000
   2    5  0.0000    6  0.0000    7  0.0000    8  0.0000    9  0.0000   10  0.0000
   11  0.0000   12  0.0000
   3    5  0.0000    6  0.0000    7  0.0000    8  0.0000    9  0.0000   10  0.0000
   11  0.0000   12  0.0000
   4    5  0.0000    6  0.0000    7  0.0000    8  0.0000    9  0.0000   10  0.0000
   11  0.0000   12  0.0000
   5    1  0.0000    2  0.0000    3  0.0000    4  0.0000    6  0.0000    8  0.0000
    8  0.0000   10  0.0000   10  0.0000   12  0.0000   12  0.0000
   6    1  0.0000    2  0.0000    3  0.0000    4  0.0000    5  0.0000    7  0.0000
    7  0.0000    9  0.0000    9  0.0000   11  0.0000   11  0.0000
   7    1  0.0000    2  0.0000    3  0.0000    4  0.0000    6  0.0000    6  0.0000
    8  0.0000   10  0.0000   10  0.0000   12  0.0000   12  0.0000
   8    1  0.0000    2  0.0000    3  0.0000    4  0.0000    5  0.0000    5  0.0000
    7  0.0000    9  0.0000    9  0.0000   11  0.0000   11  0.0000
   9    1  0.0000    2  0.0000    3  0.0000    4  0.0000    6  0.0000    6  0.0000
    8  0.0000    8  0.0000   10  0.0000   12  0.0000   12  0.0000
  10    1  0.0000    2  0.0000    3  0.0000    4  0.0000    5  0.0000    5  0.0000
    7  0.0000    7  0.0000    9  0.0000   11  0.0000   11  0.0000
  11    1  0.0000    2  0.0000    3  0.0000    4  0.0000    6  0.0000    6  0.0000
    8  0.0000    8  0.0000   10  0.0000   10  0.0000   12  0.0000
  12    1  0.0000    2  0.0000    3  0.0000    4  0.0000    5  0.0000    5  0.0000
    7  0.0000    7  0.0000    9  0.0000    9  0.0000   11  0.0000

  ReaxFF: Bond Order pi-pi prime: 

   1    5  0.0000    6  0.0000    7  0.0000    8  0.0000    9  0.0000   10  0.0000
   11  0.0000   12  0.0000
   2    5  0.0000    6  0.0000    7  0.0000    8  0.0000    9  0.0000   10  0.0000
   11  0.0000   12  0.0000
   3    5  0.0000    6  0.0000    7  0.0000    8  0.0000    9  0.0000   10  0.0000
   11  0.0000   12  0.0000
   4    5  0.0000    6  0.0000    7  0.0000    8  0.0000    9  0.0000   10  0.0000
   11  0.0000   12  0.0000
   5    1  0.0000    2  0.0000    3  0.0000    4  0.0000    6  0.0000    8  0.0000
    8  0.0000   10  0.0000   10  0.0000   12  0.0000   12  0.0000
   6    1  0.0000    2  0.0000    3  0.0000    4  0.0000    5  0.0000    7  0.0000
    7  0.0000    9  0.0000    9  0.0000   11  0.0000   11  0.0000
   7    1  0.0000    2  0.0000    3  0.0000    4  0.0000    6  0.0000    6  0.0000
    8  0.0000   10  0.0000   10  0.0000   12  0.0000   12  0.0000
   8    1  0.0000    2  0.0000    3  0.0000    4  0.0000    5  0.0000    5  0.0000
    7  0.0000    9  0.0000    9  0.0000   11  0.0000   11  0.0000
   9    1  0.0000    2  0.0000    3  0.0000    4  0.0000    6  0.0000    6  0.0000
    8  0.0000    8  0.0000   10  0.0000   12  0.0000   12  0.0000
  10    1  0.0000    2  0.0000    3  0.0000    4  0.0000    5  0.0000    5  0.0000
    7  0.0000    7  0.0000    9  0.0000   11  0.0000   11  0.0000
  11    1  0.0000    2  0.0000    3  0.0000    4  0.0000    6  0.0000    6  0.0000
    8  0.0000    8  0.0000   10  0.0000   10  0.0000   12  0.0000
  12    1  0.0000    2  0.0000    3  0.0000    4  0.0000    5  0.0000    5  0.0000
    7  0.0000    7  0.0000    9  0.0000    9  0.0000   11  0.0000



  ReaxFF: Delta and Bond Order: 

   1  2.289771    5  0.2181    6  0.2181    7  0.8089    8  0.8089    9  0.8089   10  0.8089
   11  0.8089   12  0.8089
   2  2.289771    5  0.8089    6  0.8089    7  0.2181    8  0.2181    9  0.8089   10  0.8089
   11  0.8089   12  0.8089
   3  2.289771    5  0.8089    6  0.8089    7  0.8089    8  0.8089    9  0.2181   10  0.2181
   11  0.8089   12  0.8089
   4  2.289771    5  0.8089    6  0.8089    7  0.8089    8  0.8089    9  0.8089   10  0.8089
   11  0.2181   12  0.2181
   5  1.046789    1  0.2181    2  0.8089    3  0.8089    4  0.8089    6  0.0006    8  0.0669
    8  0.0669   10  0.0669   10  0.0669   12  0.0669   12  0.0669
   6  1.046789    1  0.2181    2  0.8089    3  0.8089    4  0.8089    5  0.0006    7  0.0669
    7  0.0669    9  0.0669    9  0.0669   11  0.0669   11  0.0669
   7  1.046789    1  0.8089    2  0.2181    3  0.8089    4  0.8089    6  0.0669    6  0.0669
    8  0.0006   10  0.0669   10  0.0669   12  0.0669   12  0.0669
   8  1.046789    1  0.8089    2  0.2181    3  0.8089    4  0.8089    5  0.0669    5  0.0669
    7  0.0006    9  0.0669    9  0.0669   11  0.0669   11  0.0669
   9  1.046789    1  0.8089    2  0.8089    3  0.2181    4  0.8089    6  0.0669    6  0.0669
    8  0.0669    8  0.0669   10  0.0006   12  0.0669   12  0.0669
  10  1.046789    1  0.8089    2  0.8089    3  0.2181    4  0.8089    5  0.0669    5  0.0669
    7  0.0669    7  0.0669    9  0.0006   11  0.0669   11  0.0669
  11  1.046789    1  0.8089    2  0.8089    3  0.8089    4  0.2181    6  0.0669    6  0.0669
    8  0.0669    8  0.0669   10  0.0669   10  0.0669   12  0.0006
  12  1.046789    1  0.8089    2  0.8089    3  0.8089    4  0.2181    5  0.0669    5  0.0669
    7  0.0669    7  0.0669    9  0.0669    9  0.0669   11  0.0006

  ReaxFF: Delta lone pair: 

   1  1.000000
   2  1.000000
   3  1.000000
   4  1.000000
   5  0.998734
   6  0.998734
   7  0.998734
   8  0.998734
   9  0.998734
  10  0.998734
  11  0.998734
  12  0.998734


  ReaxFF : Energy contributions: 

  E(bond)     =     -70.24248892 eV =    -1619.8198916 kcal
  E(bpen)     =       0.00000000 eV =        0.0000000 kcal
  E(lonepair) =       1.21245957 eV =       27.9598026 kcal
  E(over)     =       9.93440993 eV =      229.0914668 kcal
  E(under)    =       0.00000011 eV =        0.0000026 kcal
  E(val)      =      14.85957330 eV =      342.6677041 kcal
  E(pen)      =       0.00000000 eV =        0.0000000 kcal
  E(coa)      =       0.00000000 eV =        0.0000000 kcal
  E(tors)     =       0.79779098 eV =       18.3973792 kcal
  E(conj)     =       0.00000000 eV =        0.0000000 kcal
  E(hb)       =       0.00000000 eV =        0.0000000 kcal
  E(vdw)      =       3.23506097 eV =       74.6018000 kcal
  E(coulomb)  =      -3.09559776 eV =      -71.3857226 kcal
  E(self)     =      -0.26866394 eV =       -6.1954978 kcal
  **** Ftol satisfied in optimiser ****
  **** Gmax satisfied in optimiser ****
  **** Gtol satisfied in optimiser ****


  **** Optimisation achieved ****


  Final energy =     -43.56745576 eV
  Final Gnorm  =       0.00031165

  Components of energy : 

--------------------------------------------------------------------------------
  Interatomic potentials     =           0.00000000 eV    
  ReaxFF force field         =         -43.56745576 eV    
  Monopole - monopole (real) =           0.00000000 eV    
  Monopole - monopole (recip)=           0.00000000 eV    
  Monopole - monopole (total)=           0.00000000 eV    
--------------------------------------------------------------------------------
  Total lattice energy       =         -43.56745576 eV    
--------------------------------------------------------------------------------
  Total lattice energy       =           -4203.5935 kJ/(mole unit cells)
--------------------------------------------------------------------------------

  Final fractional coordinates of atoms :

--------------------------------------------------------------------------------
   No.  Atomic        x           y          z          Radius
        Label       (Frac)      (Frac)     (Frac)       (Angs) 
--------------------------------------------------------------------------------
     1  Fe    c     0.000000    0.000000    0.000000    0.000000
     2  Fe    c     0.500000    1.000000    0.500000    0.000000
     3  Fe    c     1.000000    0.500000    0.500000    0.000000
     4  Fe    c     0.500000    0.500000    1.000000    0.000000
     5  S     c     0.321956    0.321956    0.321956    0.000000
     6  S     c     0.678044    0.678044    0.678044    0.000000
     7  S     c     0.178044    0.678044    0.821956    0.000000
     8  S     c     0.821956    0.321956    0.178044    0.000000
     9  S     c     0.678044    0.821956    0.178044    0.000000
    10  S     c     0.321956    0.178044    0.821956    0.000000
    11  S     c     0.821956    0.178044    0.678044    0.000000
    12  S     c     0.178044    0.821956    0.321956    0.000000
--------------------------------------------------------------------------------

  Final Cartesian lattice vectors (Angstroms) :

        5.707249    0.000000    0.000000
        0.000000    5.707249    0.000000
        0.000000    0.000000    5.707249


  Final cell parameters and derivatives :

--------------------------------------------------------------------------------
       a            5.707249 Angstrom     dE/de1(xx)     0.001602 eV/strain
       b            5.707249 Angstrom     dE/de2(yy)     0.001602 eV/strain
       c            5.707249 Angstrom     dE/de3(zz)     0.001602 eV/strain
       alpha       90.000000 Degrees      dE/de4(yz)    -0.000000 eV/strain
       beta        90.000000 Degrees      dE/de5(xz)    -0.000000 eV/strain
       gamma       90.000000 Degrees      dE/de6(xy)    -0.000000 eV/strain
--------------------------------------------------------------------------------

  Primitive cell volume =           185.900465 Angs**3

  Density of cell =      4.287267 g/cm**3

  Non-primitive cell volume =           185.900465 Angs**3


  Final internal derivatives :

--------------------------------------------------------------------------------
   No.  Atomic          a             b             c           Radius
        Label          (eV)          (eV)          (eV)        (eV/Angs)
--------------------------------------------------------------------------------
      1 Fe    c       0.000000      0.000000      0.000000      0.000000
      2 Fe    c       0.000000     -0.000000      0.000000      0.000000
      3 Fe    c       0.000000     -0.000000      0.000000      0.000000
      4 Fe    c       0.000000     -0.000000      0.000000      0.000000
      5 S     c      -0.002415     -0.002415     -0.002415      0.000000
      6 S     c       0.002415      0.002415      0.002415      0.000000
      7 S     c       0.002415      0.002415     -0.002415      0.000000
      8 S     c      -0.002415     -0.002415      0.002415      0.000000
      9 S     c       0.002415     -0.002415      0.002415      0.000000
     10 S     c      -0.002415      0.002415     -0.002415      0.000000
     11 S     c      -0.002415      0.002415      0.002415      0.000000
     12 S     c       0.002415     -0.002415     -0.002415      0.000000
--------------------------------------------------------------------------------
  Maximum abs         0.002415      0.002415      0.002415      0.000000
--------------------------------------------------------------------------------


  Time to end of optimisation =       0.4600 seconds



  Final charges from ReaxFF :

--------------------------------------------------------------------------------
    Atom no.            Atomic No.             Charge
--------------------------------------------------------------------------------
         1                  26                 0.3507362
         2                  26                 0.3507362
         3                  26                 0.3507362
         4                  26                 0.3507362
         5                  16                -0.1753681
         6                  16                -0.1753681
         7                  16                -0.1753681
         8                  16                -0.1753681
         9                  16                -0.1753681
        10                  16                -0.1753681
        11                  16                -0.1753681
        12                  16                -0.1753681
--------------------------------------------------------------------------------


  Peak dynamic memory used =       0.51 MB 


  Timing analysis for GULP :

--------------------------------------------------------------------------------
  Task / Subroutine                                          Time (Seconds)
--------------------------------------------------------------------------------
  Calculation of reaxFF energy and derivatives                    0.4074
  Electronegativity equalisation                                  0.0397
--------------------------------------------------------------------------------
  Total CPU time                                                  0.4606
--------------------------------------------------------------------------------


  CIF file written as output.cif                                              


  Job Finished at 06:19.26 11th July       2019                               

