********************************************************************************
*                       GENERAL UTILITY LATTICE PROGRAM                        *
*                                 Julian Gale                                  *
*                       Curtin Institute for Computation                       *
*                           Department of Chemistry                            *
*                    Curtin University, Western Australia                      *
********************************************************************************
* Version = 4.5.3 * Last modified =  19th April 2017                           *
********************************************************************************

  ReaxFF: Bond order cutoffs: 

  Species number =    1   4.04098
  Species number =    2   4.04098


*  single       - perform a single point run                                   *
********************************************************************************

  Job Started  at 06:28.25 11th July       2019                               

  Number of CPUs =     1


  Total number of configurations input =   1

********************************************************************************
*  Input for Configuration =   1 : main-geometry                               *
********************************************************************************

  Formula = Fe4S8                                                       

  Number of irreducible atoms/shells =      12


  Total number atoms/shells =      12

  Dimensionality = 3               :  Bulk   



  Cartesian lattice vectors (Angstroms) :

        5.380000    0.000000    0.000000
        0.000000    5.380000    0.000000
        0.000000    0.000000    5.380000

  Cell parameters (Angstroms/Degrees):

  a =       5.3800    alpha =  90.0000
  b =       5.3800    beta  =  90.0000
  c =       5.3800    gamma =  90.0000

  Initial cell volume =         155.720872 Angs**3

  Temperature of configuration =  0.000     K 

  Pressure of configuration =         0.000 GPa 

  Fractional coordinates of asymmetric unit :

--------------------------------------------------------------------------------
   No.  Atomic       x           y          z         Charge      Occupancy
        Label      (Frac)      (Frac)     (Frac)        (e)         (Frac)  
--------------------------------------------------------------------------------
      1 Fe    c    0.000000    0.000000    0.000000     0.00000    1.000000    
      2 Fe    c    0.500000    0.000000    0.500000     0.00000    1.000000    
      3 Fe    c    0.000000    0.500000    0.500000     0.00000    1.000000    
      4 Fe    c    0.500000    0.500000    0.000000     0.00000    1.000000    
      5 S     c    0.338000    0.338000    0.338000     0.00000    1.000000    
      6 S     c    0.662000    0.662000    0.662000     0.00000    1.000000    
      7 S     c    0.162000    0.662000    0.838000     0.00000    1.000000    
      8 S     c    0.838000    0.338000    0.162000     0.00000    1.000000    
      9 S     c    0.662000    0.838000    0.162000     0.00000    1.000000    
     10 S     c    0.338000    0.162000    0.838000     0.00000    1.000000    
     11 S     c    0.838000    0.162000    0.662000     0.00000    1.000000    
     12 S     c    0.162000    0.838000    0.338000     0.00000    1.000000    
--------------------------------------------------------------------------------



********************************************************************************
*  General input information                                                   *
********************************************************************************

  Species output for all configurations : 

--------------------------------------------------------------------------------
  Species    Type    Atomic    Atomic    Charge       Radii (Angs)     Library
                     Number     Mass       (e)     Cova   Ionic  VDW   Symbol
--------------------------------------------------------------------------------
    Fe       Core       26      55.85   0.000000   1.340  0.000  2.000          
    S        Core       16      32.07   0.000000   1.020  0.000  1.700          
--------------------------------------------------------------------------------


  Lattice summation method               =    Ewald          (3-D)
                                         =    Parry          (2-D)
                                         =    Saunders et al (1-D)
  Accuracy factor for lattice sums       =   12.000


  Time limit = Infinity

  ReaxFF: Bond order cutoffs: 

  Species number =    1   4.04098
  Species number =    2   4.04098



  Maximum range for interatomic potentials =    100000.000000 Angstroms

  ReaxFF forcefield to be used

  ReaxFF Coulomb cutoff =  10.0000 Ang
  ReaxFF VDW     cutoff =  10.0000 Ang
  ReaxFF H-bond  cutoff =   7.5000 Ang

  ReaxFF pairwise bond order       threshold = 0.00100000000000
  ReaxFF angle/torsion bond order  threshold = 0.00100000000000
  ReaxFF bond order double product threshold = 0.00100000000000
  ReaxFF bond order triple product threshold = 0.00100000000000
  ReaxFF hydrogen-bond bond order  threshold = 0.01000000000000


********************************************************************************
*  Output for configuration   1 : main-geometry                                *
********************************************************************************


  Increasing maxneigh to     26

  ReaxFF: Delta and Bond Order prime: 

   1  2.764770    2  0.0024    2  0.0024    2  0.0024    2  0.0024    3  0.0024    3  0.0024
    3  0.0024    3  0.0024    4  0.0024    4  0.0024    4  0.0024    4  0.0024
    5  0.2404    6  0.2404    7  0.0108    7  0.8651    8  0.8651    8  0.0108
    9  0.0108    9  0.8651   10  0.8651   10  0.0108   11  0.0108   11  0.8651
   12  0.8651   12  0.0108
   2  2.764770    1  0.0024    1  0.0024    1  0.0024    1  0.0024    3  0.0024    3  0.0024
    3  0.0024    3  0.0024    4  0.0024    4  0.0024    4  0.0024    4  0.0024
    5  0.8651    5  0.0108    6  0.0108    6  0.8651    7  0.2404    8  0.2404
    9  0.0108    9  0.8651   10  0.8651   10  0.0108   11  0.8651   11  0.0108
   12  0.0108   12  0.8651
   3  2.764770    1  0.0024    1  0.0024    1  0.0024    1  0.0024    2  0.0024    2  0.0024
    2  0.0024    2  0.0024    4  0.0024    4  0.0024    4  0.0024    4  0.0024
    5  0.8651    5  0.0108    6  0.0108    6  0.8651    7  0.8651    7  0.0108
    8  0.0108    8  0.8651    9  0.2404   10  0.2404   11  0.0108   11  0.8651
   12  0.8651   12  0.0108
   4  2.764770    1  0.0024    1  0.0024    1  0.0024    1  0.0024    2  0.0024    2  0.0024
    2  0.0024    2  0.0024    3  0.0024    3  0.0024    3  0.0024    3  0.0024
    5  0.8651    5  0.0108    6  0.0108    6  0.8651    7  0.0108    7  0.8651
    8  0.8651    8  0.0108    9  0.8651    9  0.0108   10  0.0108   10  0.8651
   11  0.2404   12  0.2404
   5  2.093572    1  0.2404    2  0.8651    2  0.0108    3  0.8651    3  0.0108    4  0.8651
    4  0.0108    6  0.0873    7  0.0097    7  0.0097    8  0.1800    8  0.1800
    9  0.0097    9  0.0097   10  0.1800   10  0.1800   11  0.0097   11  0.0097
   12  0.1800   12  0.1800
   6  2.093572    1  0.2404    2  0.0108    2  0.8651    3  0.0108    3  0.8651    4  0.0108
    4  0.8651    5  0.0873    7  0.1800    7  0.1800    8  0.0097    8  0.0097
    9  0.1800    9  0.1800   10  0.0097   10  0.0097   11  0.1800   11  0.1800
   12  0.0097   12  0.0097
   7  2.093572    1  0.0108    1  0.8651    2  0.2404    3  0.8651    3  0.0108    4  0.0108
    4  0.8651    5  0.0097    5  0.0097    6  0.1800    6  0.1800    8  0.0873
    9  0.0097    9  0.0097   10  0.1800   10  0.1800   11  0.0097   11  0.0097
   12  0.1800   12  0.1800
   8  2.093572    1  0.8651    1  0.0108    2  0.2404    3  0.0108    3  0.8651    4  0.8651
    4  0.0108    5  0.1800    5  0.1800    6  0.0097    6  0.0097    7  0.0873
    9  0.1800    9  0.1800   10  0.0097   10  0.0097   11  0.1800   11  0.1800
   12  0.0097   12  0.0097
   9  2.093572    1  0.0108    1  0.8651    2  0.0108    2  0.8651    3  0.2404    4  0.8651
    4  0.0108    5  0.0097    5  0.0097    6  0.1800    6  0.1800    7  0.0097
    7  0.0097    8  0.1800    8  0.1800   10  0.0873   11  0.0097   11  0.0097
   12  0.1800   12  0.1800
  10  2.093572    1  0.8651    1  0.0108    2  0.8651    2  0.0108    3  0.2404    4  0.0108
    4  0.8651    5  0.1800    5  0.1800    6  0.0097    6  0.0097    7  0.1800
    7  0.1800    8  0.0097    8  0.0097    9  0.0873   11  0.1800   11  0.1800
   12  0.0097   12  0.0097
  11  2.093572    1  0.0108    1  0.8651    2  0.8651    2  0.0108    3  0.0108    3  0.8651
    4  0.2404    5  0.0097    5  0.0097    6  0.1800    6  0.1800    7  0.0097
    7  0.0097    8  0.1800    8  0.1800    9  0.0097    9  0.0097   10  0.1800
   10  0.1800   12  0.0873
  12  2.093572    1  0.8651    1  0.0108    2  0.0108    2  0.8651    3  0.8651    3  0.0108
    4  0.2404    5  0.1800    5  0.1800    6  0.0097    6  0.0097    7  0.1800
    7  0.1800    8  0.0097    8  0.0097    9  0.1800    9  0.1800   10  0.0097
   10  0.0097   11  0.0873

  ReaxFF: Bond Order sigma prime: 

   1    2  0.0024    2  0.0024    2  0.0024    2  0.0024    3  0.0024    3  0.0024
    3  0.0024    3  0.0024    4  0.0024    4  0.0024    4  0.0024    4  0.0024
    5  0.2404    6  0.2404    7  0.0108    7  0.8651    8  0.8651    8  0.0108
    9  0.0108    9  0.8651   10  0.8651   10  0.0108   11  0.0108   11  0.8651
   12  0.8651   12  0.0108
   2    1  0.0024    1  0.0024    1  0.0024    1  0.0024    3  0.0024    3  0.0024
    3  0.0024    3  0.0024    4  0.0024    4  0.0024    4  0.0024    4  0.0024
    5  0.8651    5  0.0108    6  0.0108    6  0.8651    7  0.2404    8  0.2404
    9  0.0108    9  0.8651   10  0.8651   10  0.0108   11  0.8651   11  0.0108
   12  0.0108   12  0.8651
   3    1  0.0024    1  0.0024    1  0.0024    1  0.0024    2  0.0024    2  0.0024
    2  0.0024    2  0.0024    4  0.0024    4  0.0024    4  0.0024    4  0.0024
    5  0.8651    5  0.0108    6  0.0108    6  0.8651    7  0.8651    7  0.0108
    8  0.0108    8  0.8651    9  0.2404   10  0.2404   11  0.0108   11  0.8651
   12  0.8651   12  0.0108
   4    1  0.0024    1  0.0024    1  0.0024    1  0.0024    2  0.0024    2  0.0024
    2  0.0024    2  0.0024    3  0.0024    3  0.0024    3  0.0024    3  0.0024
    5  0.8651    5  0.0108    6  0.0108    6  0.8651    7  0.0108    7  0.8651
    8  0.8651    8  0.0108    9  0.8651    9  0.0108   10  0.0108   10  0.8651
   11  0.2404   12  0.2404
   5    1  0.2404    2  0.8651    2  0.0108    3  0.8651    3  0.0108    4  0.8651
    4  0.0108    6  0.0873    7  0.0097    7  0.0097    8  0.1800    8  0.1800
    9  0.0097    9  0.0097   10  0.1800   10  0.1800   11  0.0097   11  0.0097
   12  0.1800   12  0.1800
   6    1  0.2404    2  0.0108    2  0.8651    3  0.0108    3  0.8651    4  0.0108
    4  0.8651    5  0.0873    7  0.1800    7  0.1800    8  0.0097    8  0.0097
    9  0.1800    9  0.1800   10  0.0097   10  0.0097   11  0.1800   11  0.1800
   12  0.0097   12  0.0097
   7    1  0.0108    1  0.8651    2  0.2404    3  0.8651    3  0.0108    4  0.0108
    4  0.8651    5  0.0097    5  0.0097    6  0.1800    6  0.1800    8  0.0873
    9  0.0097    9  0.0097   10  0.1800   10  0.1800   11  0.0097   11  0.0097
   12  0.1800   12  0.1800
   8    1  0.8651    1  0.0108    2  0.2404    3  0.0108    3  0.8651    4  0.8651
    4  0.0108    5  0.1800    5  0.1800    6  0.0097    6  0.0097    7  0.0873
    9  0.1800    9  0.1800   10  0.0097   10  0.0097   11  0.1800   11  0.1800
   12  0.0097   12  0.0097
   9    1  0.0108    1  0.8651    2  0.0108    2  0.8651    3  0.2404    4  0.8651
    4  0.0108    5  0.0097    5  0.0097    6  0.1800    6  0.1800    7  0.0097
    7  0.0097    8  0.1800    8  0.1800   10  0.0873   11  0.0097   11  0.0097
   12  0.1800   12  0.1800
  10    1  0.8651    1  0.0108    2  0.8651    2  0.0108    3  0.2404    4  0.0108
    4  0.8651    5  0.1800    5  0.1800    6  0.0097    6  0.0097    7  0.1800
    7  0.1800    8  0.0097    8  0.0097    9  0.0873   11  0.1800   11  0.1800
   12  0.0097   12  0.0097
  11    1  0.0108    1  0.8651    2  0.8651    2  0.0108    3  0.0108    3  0.8651
    4  0.2404    5  0.0097    5  0.0097    6  0.1800    6  0.1800    7  0.0097
    7  0.0097    8  0.1800    8  0.1800    9  0.0097    9  0.0097   10  0.1800
   10  0.1800   12  0.0873
  12    1  0.8651    1  0.0108    2  0.0108    2  0.8651    3  0.8651    3  0.0108
    4  0.2404    5  0.1800    5  0.1800    6  0.0097    6  0.0097    7  0.1800
    7  0.1800    8  0.0097    8  0.0097    9  0.1800    9  0.1800   10  0.0097
   10  0.0097   11  0.0873

  ReaxFF: Bond Order pi prime: 

   1    2  0.0000    2  0.0000    2  0.0000    2  0.0000    3  0.0000    3  0.0000
    3  0.0000    3  0.0000    4  0.0000    4  0.0000    4  0.0000    4  0.0000
    5  0.0000    6  0.0000    7  0.0000    7  0.0000    8  0.0000    8  0.0000
    9  0.0000    9  0.0000   10  0.0000   10  0.0000   11  0.0000   11  0.0000
   12  0.0000   12  0.0000
   2    1  0.0000    1  0.0000    1  0.0000    1  0.0000    3  0.0000    3  0.0000
    3  0.0000    3  0.0000    4  0.0000    4  0.0000    4  0.0000    4  0.0000
    5  0.0000    5  0.0000    6  0.0000    6  0.0000    7  0.0000    8  0.0000
    9  0.0000    9  0.0000   10  0.0000   10  0.0000   11  0.0000   11  0.0000
   12  0.0000   12  0.0000
   3    1  0.0000    1  0.0000    1  0.0000    1  0.0000    2  0.0000    2  0.0000
    2  0.0000    2  0.0000    4  0.0000    4  0.0000    4  0.0000    4  0.0000
    5  0.0000    5  0.0000    6  0.0000    6  0.0000    7  0.0000    7  0.0000
    8  0.0000    8  0.0000    9  0.0000   10  0.0000   11  0.0000   11  0.0000
   12  0.0000   12  0.0000
   4    1  0.0000    1  0.0000    1  0.0000    1  0.0000    2  0.0000    2  0.0000
    2  0.0000    2  0.0000    3  0.0000    3  0.0000    3  0.0000    3  0.0000
    5  0.0000    5  0.0000    6  0.0000    6  0.0000    7  0.0000    7  0.0000
    8  0.0000    8  0.0000    9  0.0000    9  0.0000   10  0.0000   10  0.0000
   11  0.0000   12  0.0000
   5    1  0.0000    2  0.0000    2  0.0000    3  0.0000    3  0.0000    4  0.0000
    4  0.0000    6  0.0000    7  0.0000    7  0.0000    8  0.0000    8  0.0000
    9  0.0000    9  0.0000   10  0.0000   10  0.0000   11  0.0000   11  0.0000
   12  0.0000   12  0.0000
   6    1  0.0000    2  0.0000    2  0.0000    3  0.0000    3  0.0000    4  0.0000
    4  0.0000    5  0.0000    7  0.0000    7  0.0000    8  0.0000    8  0.0000
    9  0.0000    9  0.0000   10  0.0000   10  0.0000   11  0.0000   11  0.0000
   12  0.0000   12  0.0000
   7    1  0.0000    1  0.0000    2  0.0000    3  0.0000    3  0.0000    4  0.0000
    4  0.0000    5  0.0000    5  0.0000    6  0.0000    6  0.0000    8  0.0000
    9  0.0000    9  0.0000   10  0.0000   10  0.0000   11  0.0000   11  0.0000
   12  0.0000   12  0.0000
   8    1  0.0000    1  0.0000    2  0.0000    3  0.0000    3  0.0000    4  0.0000
    4  0.0000    5  0.0000    5  0.0000    6  0.0000    6  0.0000    7  0.0000
    9  0.0000    9  0.0000   10  0.0000   10  0.0000   11  0.0000   11  0.0000
   12  0.0000   12  0.0000
   9    1  0.0000    1  0.0000    2  0.0000    2  0.0000    3  0.0000    4  0.0000
    4  0.0000    5  0.0000    5  0.0000    6  0.0000    6  0.0000    7  0.0000
    7  0.0000    8  0.0000    8  0.0000   10  0.0000   11  0.0000   11  0.0000
   12  0.0000   12  0.0000
  10    1  0.0000    1  0.0000    2  0.0000    2  0.0000    3  0.0000    4  0.0000
    4  0.0000    5  0.0000    5  0.0000    6  0.0000    6  0.0000    7  0.0000
    7  0.0000    8  0.0000    8  0.0000    9  0.0000   11  0.0000   11  0.0000
   12  0.0000   12  0.0000
  11    1  0.0000    1  0.0000    2  0.0000    2  0.0000    3  0.0000    3  0.0000
    4  0.0000    5  0.0000    5  0.0000    6  0.0000    6  0.0000    7  0.0000
    7  0.0000    8  0.0000    8  0.0000    9  0.0000    9  0.0000   10  0.0000
   10  0.0000   12  0.0000
  12    1  0.0000    1  0.0000    2  0.0000    2  0.0000    3  0.0000    3  0.0000
    4  0.0000    5  0.0000    5  0.0000    6  0.0000    6  0.0000    7  0.0000
    7  0.0000    8  0.0000    8  0.0000    9  0.0000    9  0.0000   10  0.0000
   10  0.0000   11  0.0000

  ReaxFF: Bond Order pi-pi prime: 

   1    2  0.0000    2  0.0000    2  0.0000    2  0.0000    3  0.0000    3  0.0000
    3  0.0000    3  0.0000    4  0.0000    4  0.0000    4  0.0000    4  0.0000
    5  0.0000    6  0.0000    7  0.0000    7  0.0000    8  0.0000    8  0.0000
    9  0.0000    9  0.0000   10  0.0000   10  0.0000   11  0.0000   11  0.0000
   12  0.0000   12  0.0000
   2    1  0.0000    1  0.0000    1  0.0000    1  0.0000    3  0.0000    3  0.0000
    3  0.0000    3  0.0000    4  0.0000    4  0.0000    4  0.0000    4  0.0000
    5  0.0000    5  0.0000    6  0.0000    6  0.0000    7  0.0000    8  0.0000
    9  0.0000    9  0.0000   10  0.0000   10  0.0000   11  0.0000   11  0.0000
   12  0.0000   12  0.0000
   3    1  0.0000    1  0.0000    1  0.0000    1  0.0000    2  0.0000    2  0.0000
    2  0.0000    2  0.0000    4  0.0000    4  0.0000    4  0.0000    4  0.0000
    5  0.0000    5  0.0000    6  0.0000    6  0.0000    7  0.0000    7  0.0000
    8  0.0000    8  0.0000    9  0.0000   10  0.0000   11  0.0000   11  0.0000
   12  0.0000   12  0.0000
   4    1  0.0000    1  0.0000    1  0.0000    1  0.0000    2  0.0000    2  0.0000
    2  0.0000    2  0.0000    3  0.0000    3  0.0000    3  0.0000    3  0.0000
    5  0.0000    5  0.0000    6  0.0000    6  0.0000    7  0.0000    7  0.0000
    8  0.0000    8  0.0000    9  0.0000    9  0.0000   10  0.0000   10  0.0000
   11  0.0000   12  0.0000
   5    1  0.0000    2  0.0000    2  0.0000    3  0.0000    3  0.0000    4  0.0000
    4  0.0000    6  0.0000    7  0.0000    7  0.0000    8  0.0000    8  0.0000
    9  0.0000    9  0.0000   10  0.0000   10  0.0000   11  0.0000   11  0.0000
   12  0.0000   12  0.0000
   6    1  0.0000    2  0.0000    2  0.0000    3  0.0000    3  0.0000    4  0.0000
    4  0.0000    5  0.0000    7  0.0000    7  0.0000    8  0.0000    8  0.0000
    9  0.0000    9  0.0000   10  0.0000   10  0.0000   11  0.0000   11  0.0000
   12  0.0000   12  0.0000
   7    1  0.0000    1  0.0000    2  0.0000    3  0.0000    3  0.0000    4  0.0000
    4  0.0000    5  0.0000    5  0.0000    6  0.0000    6  0.0000    8  0.0000
    9  0.0000    9  0.0000   10  0.0000   10  0.0000   11  0.0000   11  0.0000
   12  0.0000   12  0.0000
   8    1  0.0000    1  0.0000    2  0.0000    3  0.0000    3  0.0000    4  0.0000
    4  0.0000    5  0.0000    5  0.0000    6  0.0000    6  0.0000    7  0.0000
    9  0.0000    9  0.0000   10  0.0000   10  0.0000   11  0.0000   11  0.0000
   12  0.0000   12  0.0000
   9    1  0.0000    1  0.0000    2  0.0000    2  0.0000    3  0.0000    4  0.0000
    4  0.0000    5  0.0000    5  0.0000    6  0.0000    6  0.0000    7  0.0000
    7  0.0000    8  0.0000    8  0.0000   10  0.0000   11  0.0000   11  0.0000
   12  0.0000   12  0.0000
  10    1  0.0000    1  0.0000    2  0.0000    2  0.0000    3  0.0000    4  0.0000
    4  0.0000    5  0.0000    5  0.0000    6  0.0000    6  0.0000    7  0.0000
    7  0.0000    8  0.0000    8  0.0000    9  0.0000   11  0.0000   11  0.0000
   12  0.0000   12  0.0000
  11    1  0.0000    1  0.0000    2  0.0000    2  0.0000    3  0.0000    3  0.0000
    4  0.0000    5  0.0000    5  0.0000    6  0.0000    6  0.0000    7  0.0000
    7  0.0000    8  0.0000    8  0.0000    9  0.0000    9  0.0000   10  0.0000
   10  0.0000   12  0.0000
  12    1  0.0000    1  0.0000    2  0.0000    2  0.0000    3  0.0000    3  0.0000
    4  0.0000    5  0.0000    5  0.0000    6  0.0000    6  0.0000    7  0.0000
    7  0.0000    8  0.0000    8  0.0000    9  0.0000    9  0.0000   10  0.0000
   10  0.0000   11  0.0000



  ReaxFF: Delta and Bond Order: 

   1  2.764770    2  0.0024    2  0.0024    2  0.0024    2  0.0024    3  0.0024    3  0.0024
    3  0.0024    3  0.0024    4  0.0024    4  0.0024    4  0.0024    4  0.0024
    5  0.2404    6  0.2404    7  0.0108    7  0.8651    8  0.8651    8  0.0108
    9  0.0108    9  0.8651   10  0.8651   10  0.0108   11  0.0108   11  0.8651
   12  0.8651   12  0.0108
   2  2.764770    1  0.0024    1  0.0024    1  0.0024    1  0.0024    3  0.0024    3  0.0024
    3  0.0024    3  0.0024    4  0.0024    4  0.0024    4  0.0024    4  0.0024
    5  0.8651    5  0.0108    6  0.0108    6  0.8651    7  0.2404    8  0.2404
    9  0.0108    9  0.8651   10  0.8651   10  0.0108   11  0.8651   11  0.0108
   12  0.0108   12  0.8651
   3  2.764770    1  0.0024    1  0.0024    1  0.0024    1  0.0024    2  0.0024    2  0.0024
    2  0.0024    2  0.0024    4  0.0024    4  0.0024    4  0.0024    4  0.0024
    5  0.8651    5  0.0108    6  0.0108    6  0.8651    7  0.8651    7  0.0108
    8  0.0108    8  0.8651    9  0.2404   10  0.2404   11  0.0108   11  0.8651
   12  0.8651   12  0.0108
   4  2.764770    1  0.0024    1  0.0024    1  0.0024    1  0.0024    2  0.0024    2  0.0024
    2  0.0024    2  0.0024    3  0.0024    3  0.0024    3  0.0024    3  0.0024
    5  0.8651    5  0.0108    6  0.0108    6  0.8651    7  0.0108    7  0.8651
    8  0.8651    8  0.0108    9  0.8651    9  0.0108   10  0.0108   10  0.8651
   11  0.2404   12  0.2404
   5  1.466869    1  0.2404    2  0.8651    2  0.0108    3  0.8651    3  0.0108    4  0.8651
    4  0.0108    6  0.0426    7  0.0048    7  0.0048    8  0.0879    8  0.0879
    9  0.0048    9  0.0048   10  0.0879   10  0.0879   11  0.0048   11  0.0048
   12  0.0879   12  0.0879
   6  1.466869    1  0.2404    2  0.0108    2  0.8651    3  0.0108    3  0.8651    4  0.0108
    4  0.8651    5  0.0426    7  0.0879    7  0.0879    8  0.0048    8  0.0048
    9  0.0879    9  0.0879   10  0.0048   10  0.0048   11  0.0879   11  0.0879
   12  0.0048   12  0.0048
   7  1.466869    1  0.0108    1  0.8651    2  0.2404    3  0.8651    3  0.0108    4  0.0108
    4  0.8651    5  0.0048    5  0.0048    6  0.0879    6  0.0879    8  0.0426
    9  0.0048    9  0.0048   10  0.0879   10  0.0879   11  0.0048   11  0.0048
   12  0.0879   12  0.0879
   8  1.466869    1  0.8651    1  0.0108    2  0.2404    3  0.0108    3  0.8651    4  0.8651
    4  0.0108    5  0.0879    5  0.0879    6  0.0048    6  0.0048    7  0.0426
    9  0.0879    9  0.0879   10  0.0048   10  0.0048   11  0.0879   11  0.0879
   12  0.0048   12  0.0048
   9  1.466869    1  0.0108    1  0.8651    2  0.0108    2  0.8651    3  0.2404    4  0.8651
    4  0.0108    5  0.0048    5  0.0048    6  0.0879    6  0.0879    7  0.0048
    7  0.0048    8  0.0879    8  0.0879   10  0.0426   11  0.0048   11  0.0048
   12  0.0879   12  0.0879
  10  1.466869    1  0.8651    1  0.0108    2  0.8651    2  0.0108    3  0.2404    4  0.0108
    4  0.8651    5  0.0879    5  0.0879    6  0.0048    6  0.0048    7  0.0879
    7  0.0879    8  0.0048    8  0.0048    9  0.0426   11  0.0879   11  0.0879
   12  0.0048   12  0.0048
  11  1.466869    1  0.0108    1  0.8651    2  0.8651    2  0.0108    3  0.0108    3  0.8651
    4  0.2404    5  0.0048    5  0.0048    6  0.0879    6  0.0879    7  0.0048
    7  0.0048    8  0.0879    8  0.0879    9  0.0048    9  0.0048   10  0.0879
   10  0.0879   12  0.0426
  12  1.466869    1  0.8651    1  0.0108    2  0.0108    2  0.8651    3  0.8651    3  0.0108
    4  0.2404    5  0.0879    5  0.0879    6  0.0048    6  0.0048    7  0.0879
    7  0.0879    8  0.0048    8  0.0048    9  0.0879    9  0.0879   10  0.0048
   10  0.0048   11  0.0426

  ReaxFF: Delta lone pair: 

   1  1.000000
   2  1.000000
   3  1.000000
   4  1.000000
   5  0.999998
   6  0.999998
   7  0.999998
   8  0.999998
   9  0.999998
  10  0.999998
  11  0.999998
  12  0.999998


  ReaxFF : Energy contributions: 

  E(bond)     =     -78.23660866 eV =    -1804.1674905 kcal
  E(bpen)     =       0.00000000 eV =        0.0000000 kcal
  E(lonepair) =       1.21399347 eV =       27.9951750 kcal
  E(over)     =      12.78993990 eV =      294.9411301 kcal
  E(under)    =       0.00000000 eV =        0.0000000 kcal
  E(val)      =      16.66895737 eV =      384.3928245 kcal
  E(pen)      =       0.00000000 eV =        0.0000000 kcal
  E(coa)      =       0.00000000 eV =        0.0000000 kcal
  E(tors)     =       0.00000000 eV =        0.0000000 kcal
  E(conj)     =       0.00000000 eV =        0.0000000 kcal
  E(hb)       =       0.00000000 eV =        0.0000000 kcal
  E(vdw)      =       6.41369507 eV =      147.9023739 kcal
  E(coulomb)  =      -3.34422152 eV =      -77.1190860 kcal
  E(self)     =      -0.10608718 eV =       -2.4464129 kcal

  Components of energy : 

--------------------------------------------------------------------------------
  Interatomic potentials     =           0.00000000 eV    
  ReaxFF force field         =         -44.60033156 eV    
  Monopole - monopole (real) =           0.00000000 eV    
  Monopole - monopole (recip)=           0.00000000 eV    
  Monopole - monopole (total)=           0.00000000 eV    
--------------------------------------------------------------------------------
  Total lattice energy       =         -44.60033156 eV    
--------------------------------------------------------------------------------
  Total lattice energy       =           -4303.2502 kJ/(mole unit cells)
--------------------------------------------------------------------------------


  Final charges from ReaxFF :

--------------------------------------------------------------------------------
    Atom no.            Atomic No.             Charge
--------------------------------------------------------------------------------
         1                  26                 0.3597069
         2                  26                 0.3597069
         3                  26                 0.3597069
         4                  26                 0.3597069
         5                  16                -0.1798535
         6                  16                -0.1798535
         7                  16                -0.1798535
         8                  16                -0.1798535
         9                  16                -0.1798535
        10                  16                -0.1798535
        11                  16                -0.1798535
        12                  16                -0.1798535
--------------------------------------------------------------------------------


  Peak dynamic memory used =       0.50 MB 


  Timing analysis for GULP :

--------------------------------------------------------------------------------
  Task / Subroutine                                          Time (Seconds)
--------------------------------------------------------------------------------
  Calculation of reaxFF energy and derivatives                    0.0036
  Electronegativity equalisation                                  0.0010
--------------------------------------------------------------------------------
  Total CPU time                                                  0.0105
--------------------------------------------------------------------------------


  Job Finished at 06:28.25 11th July       2019                               

